
                                 *****************
                                 * O   R   C   A *
                                 *****************

                                            #,                                       
                                            ###                                      
                                            ####                                     
                                            #####                                    
                                            ######                                   
                                           ########,                                 
                                     ,,################,,,,,                         
                               ,,#################################,,                 
                          ,,##########################################,,             
                       ,#########################################, ''#####,          
                    ,#############################################,,   '####,        
                  ,##################################################,,,,####,       
                ,###########''''           ''''###############################       
              ,#####''   ,,,,##########,,,,          '''####'''          '####       
            ,##' ,,,,###########################,,,                        '##       
           ' ,,###''''                  '''############,,,                           
         ,,##''                                '''############,,,,        ,,,,,,###''
      ,#''                                            '''#######################'''  
     '                                                          ''''####''''         
             ,#######,   #######,   ,#######,      ##                                
            ,#'     '#,  ##    ##  ,#'     '#,    #''#        ,####,   ,####,        
            ##       ##  ##   ,#'  ##            #'  '#       #'       #'  '#        
            ##       ##  #######   ##           ,######,      #####,   #    #        
            '#,     ,#'  ##    ##  '#,     ,#' ,#      #,     #,   #   #,  ,#        
             '#######'   ##     ##  '#######'  #'      '#     '####' # '####'        



                #########################################################
                #                        -***-                          #
                #          Department of theory and spectroscopy        #
                #                                                       #
                #                      Frank Neese                      #
                #                                                       #
                #     Directorship, Architecture, Infrastructure        #
                #                    SHARK, DRIVERS                     #
                #        Core code/Algorithms in most modules           #
                #                                                       #
                #        Max Planck Institute fuer Kohlenforschung      #
                #                Kaiser Wilhelm Platz 1                 #
                #                 D-45470 Muelheim/Ruhr                 #
                #                      Germany                          #
                #                                                       #
                #                  All rights reserved                  #
                #                        -***-                          #
                #########################################################


                         Program Version 6.0.1  -  RELEASE   -


 With contributions from (in alphabetic order):
[Max-Planck-Institut fuer Kohlenforschung]                               
  Daniel Aravena         : Magnetic Suceptibility                        
  Michael Atanasov       : Ab Initio Ligand Field Theory (pilot matlab implementation)
  Alexander A. Auer      : GIAO ZORA, VPT2 properties, NMR spectrum      
  Ute Becker             : All parallelization in ORCA, NUMFREQ, NUMCALC 
  Giovanni Bistoni       : ED, misc. LED, open-shell LED, HFLD           
  Martin Brehm           : Molecular dynamics                            
  Dmytro Bykov           : pre 5.0 version of the SCF Hessian            
  Marcos Casanova-Páez   : Triplet and SCS-CIS(D). UHF-(DLPNO)-IP/EA/STEOM-CCSD. UHF-CVS-IP/STEOM-CCSD   
  Vijay G. Chilkuri      : MRCI spin determinant printing, contributions to CSF-ICE 
  Pauline Colinet        : FMM embedding                                 
  Dipayan Datta          : RHF DLPNO-CCSD density                        
  Achintya Kumar Dutta   : EOM-CC, STEOM-CC                              
  Nicolas Foglia         : Exact transition moments, OPA infrastructure, MCD improvements    
  Dmitry Ganyushin       : Spin-Orbit,Spin-Spin,Magnetic field MRCI      
  Miquel Garcia-Rates    : C-PCM and meta-GGA Hessian, CCSD/C-PCM, Gaussian charge scheme 
  Tiago L. C. Gouveia    : GS-ROHF, GS-ROCIS                             
  Yang Guo               : DLPNO-NEVPT2, F12-NEVPT2, CIM, IAO-localization        
  Andreas Hansen         : Spin unrestricted coupled pair/coupled cluster methods 
  Ingolf Harden          : AUTO-CI MPn and infrastructure                
  Benjamin Helmich-Paris : MC-RPA, TRAH-(SCF,CASSCF), AVAS, COSX integrals, SCF dyn. polar. 
  Lee Huntington         : MR-EOM, pCC                                   
  Robert Izsak           : Overlap fitted RIJCOSX, COSX-SCS-MP3, EOM     
  Riya Kayal             : Wick's Theorem for AUTO-CI, AUTO-CI UHF-CCSDT 
  Emily Kempfer          : AUTO-CI, RHF CISDT and CCSDT                  
  Christian Kollmar      : KDIIS, OOCD, Brueckner-CCSD(T), CCSD density, CASPT2, CASPT2-K, improved NEVPT2 
  Axel Koslowski         : Symmetry handling                             
  Simone Kossmann        : meta-GGA functionals, TD-DFT gradient, OOMP2, (MP2 Hessian; deprecated post 5.0) 
  Lucas Lang             : DCDCAS                                        
  Marvin Lechner         : AUTO-CI (C++ implementation), FIC-MRCC        
  Spencer Leger          : CASSCF response                               
  Dagmar Lenk            : GEPOL surface, SMD, ORCA-2-JSON               
  Dimitrios Liakos       : Extrapolation schemes; Compound Job, initial MDCI parallelization 
  Dimitrios Manganas     : Further ROCIS development; embedding schemes. LFT, Crystal Embedding 
  Dimitrios Pantazis     : SARC Basis sets                               
  Anastasios Papadopoulos: AUTO-CI, single reference methods and gradients 
  Taras Petrenko         : pre 6.0 DFT Hessian and TD-DFT gradient, (ASA, deprecated), ECA, 1-Electron XAS/XES, NRVS 
  Peter Pinski           : DLPNO-MP2, DLPNO-MP2 Gradient                 
  Christoph Reimann      : Effective Core Potentials                     
  Marius Retegan         : Local ZFS, SOC                                
  Christoph Riplinger    : Optimizer, TS searches, QM/MM, DLPNO-CCSD(T), (RO)-DLPNO pert. Triples 
  Michael Roemelt        : Original ROCIS implementation                 
  Masaaki Saitow         : Open-shell DLPNO-CCSD energy and density      
  Barbara Sandhoefer     : DKH picture change effects                    
  Kantharuban Sivalingam : CASSCF convergence/infrastructure, NEVPT2 and variants, FIC-MRCI 
  Bernardo de Souza      : ESD, SOC TD-DFT                               
  Georgi L. Stoychev     : AutoAux, RI-MP2 NMR, DLPNO-MP2 response, X2C  
  Van Anh Tran           : RI-MP2 g-tensors                              
  Willem Van den Heuvel  : Paramagnetic NMR                              
  Zikuan Wang            : NOTCH, Electric field optimization            
  Frank Wennmohs         : Technical directorship and infrastructure     
  Hang Xu                : AUTO-CI-Response properties                   
                                                                         
[FACCTs GmbH]                                                            
  Markus Bursch, Miquel Garcia-Rates, Christoph Riplinger, Bernardo de Souza, Georgi L. Stoychev 
                                                                 
  APM, Basis sets (HGBS, AHGBS, def-TZVP (Ac-Lr), def2-XVPD (La-Lu)), CI-OPT, improved COSX, DLPNO-Multilevel,           
  DOCKER, DRACO, updates on ESD, GOAT, IRC, LR-CPCM, MBIS, meta-GGA TD-DFT gradient, ML-optimized integration grids, 
  MM, NACMEs, nearIR, NEB, NEB-TS, NL-DFT gradient (VV10), 2- and 3-layer-ONIOM, interface openCOSMO-RS, QMMM,   
  Crystal-QMMM, SF, symmetry and pop. for TD-DFT, r2SCAN hybrids, SOLVATOR                                   
                                                                         
[Other institutions]                                                     
  V. Asgeirsson          : NEB                                           
  Christoph Bannwarth    : sTDA-DFT, sTD-DFT, PBEh-3c, B97-3c, D3        
  Sebastian Ehlert       : rSCAN, r2SCAN, r2SCAN-3c, D4, dhf basis sets  
  Marvin Friede          : D4 for Fr, Ra, Ac-Lr                          
  Lars Goerigk           : TD-DFT with DH, B97 family of functionals     
  Stefan Grimme          : VdW corrections, initial TS optimization, DFT functionals, gCP, sTDA/sTD-DF 
  Waldemar Hujo          : DFT-NL                                        
  H. Jonsson             : NEB                                           
  Holger Kruse           : gCP                                           
  Marcel Mueller         : wB97X-3c, vDZP basis set                      
  Hagen Neugebauer       : wr2SCAN                                       
  Tobias Risthaus        : range-separated hybrid DFT                    
  Lukas Wittmann         : regularized MP2, r2SCAN double-hybrids, wr2SCAN        
                                                                         
We gratefully acknowledge several colleagues who have allowed us to      
interface, adapt or use parts of their codes:                            
  Ed Valeev, F. Pavosevic, A. Kumar             : LibInt (2-el integral package), F12 methods 
  Garnet Chan, S. Sharma, J. Yang, R. Olivares  : DMRG                   
  Ulf Ekstrom                                   : XCFun DFT Library      
  Mihaly Kallay                                 : mrcc  (arbitrary order and MRCC methods)
  Frank Weinhold                                : gennbo (NPA and NBO analysis)           
  Simon Mueller                                 : openCOSMO-RS                            
  Christopher J. Cramer and Donald G. Truhlar   : smd solvation model                     
  S Lehtola, MJT Oliveira, MAL Marques          : LibXC Library                           
  Liviu Ungur et al                             : ANISO software                          


 Your calculation uses the libint2 library for the computation of 2-el integrals
 For citations please refer to: http://libint.valeyev.net

 Your ORCA version has been built with support for libXC version: 6.2.2
 For citations please refer to: https://libxc.gitlab.io

 This ORCA versions uses:
   CBLAS   interface :  Fast vector & matrix operations
   LAPACKE interface :  Fast linear algebra routines
   SCALAPACK package :  Parallel linear algebra routines
   Shared memory     :  Shared parallel matrices
   BLAS/LAPACK       :  OpenBLAS 0.3.27  USE64BITINT DYNAMIC_ARCH NO_AFFINITY Zen SINGLE_THREADED
        Core in use  :  Zen
   Copyright (c) 2011-2014, The OpenBLAS Project


NOTE: MaxCore=10000 MB was set to SCF,MP2,MDCI,CIPSI,MRCI and CIS
      => If you want to overwrite this, your respective input block should be placed after the MaxCore statement
Your calculation utilizes the atom-pairwise dispersion correction
based on EEQ partial charges (D4)


Preparing ONIOM calculation             ...         done
================================================================================

cite the ECPs for C  [vDZP-ECP], O  [vDZP-ECP] as follows:
   B-Ne (ecp-2-mwb), Al-Ar (ecp-10-mwb), Ga-Kr (ecp-28-mwb), Y-Cd (ecp-28-mwb), In-Xe (ecp-46-mwb):
     A. Bergner, M. Dolg, W. Küchle, H. Stoll, and H. Preuß, Mol. Phys. 80, 1431 (1993)., T. Leininger, A. Berning, A. Nicklass, H. Stoll, H.-J. Werner, and H.-J.Flad, Chem. Phys. 217, 19 (1997).
   Na-Mg, K-Ca, Rb-Sr, Cs-Ba (CRENBL):
     L. Fernandez Pacios and P. A. Christiansen, J. Chem. Phys. 82, 2664 (1985)., M. M. Hurley, L. F. Pacios, P. A. Christiansen, R. B. Ross, and W. C. Ermler, J. Chem. Phys. 84, 6840 (1986)., L. A. LaJohn, P. A. Christiansen, R. B. Ross, T. Atashroo, and W. C. Ermler, J. Chem. Phys. 87, 2812 (1987)., R. B. Ross, J. M. Powers, T. Atashroo, W. C. Ermler, L. A. LaJohn, and P. A. Christiansen, J. Chem. Phys. 93, 6654 (1990). 
   Sc-Zn (ecp-10-mdf):
     M. Dolg, U. Wedig, H. Stoll, and H. Preuss, J. Chem. Phys. 86, 866 (1986). 
   Y-Cd (ecp-28-mwb), Hf-Hg (ecp-60-mwb):
     D. Andrae, U. Häußermann, M. Dolg, H. Stoll, and H. Preuß, Theor. Chim. Acta 77, 123 (1990). 
   La (ecp-46-mwb):
     M. Dolg, H. Stoll, and H. Preuss, J. Chem. Phys. 90, 1730 (1989)., M. Dolg, H. Stoll, and H. Preuss, Theor. Chim. Acta 85, 441 (1993).
   Ce-Lu (SBKJC-ecp):
     T. R. Cundari and W. J. Stevens, J. Chem. Phys. 98, 5555 (1993).
   Tl-Rn (ecp-78-mwb):
     W. Küchle, M. Dolg, H. Stoll, and H. Preuss, Mol. Phys. 74, 1245 (1991).

ECP parameters for C  [vDZP-ECP], O  [vDZP-ECP] have been obtained from:
MM, AH, SG, J. Chem. Phys. 158, 014103 (2023), 10.1063/5.0133026

----- Orbital basis set information -----
Your calculation utilizes the basis: vDZP
   Marcel Mueller, Andreas Hansen, Stefan Grimme 
   J. Chem. Phys. 158, 014103 (2023). DOI: 10.1063/5.0133026

----- AuxJ basis set information -----
Your calculation utilizes the auxiliary basis: def2/J
   F. Weigend, Phys. Chem. Chem. Phys. 8, 1057 (2006).

================================================================================
                                        WARNINGS
                       Please study these warnings very carefully!
================================================================================


WARNING: Geometry Optimization
  ===> : Switching off AutoStart
         For restart on a previous wavefunction, please use MOREAD

WARNING: Found frequency calculation in combination with XTB calculation
  ===> : Need to redirect dipole moment calculation to properties.out

WARNING: QMMM chosen together with analytic frequencies.
         This is currently not implemented.
  ===> : Switching to numerical frequencies.

================================================================================
                                       INPUT FILE
================================================================================
NAME = enol.inp
|  1> ! QM/XTB wb97x-3c opt freq
|  2> %QMMM
|  3>   QMATOMS {2:4 7:8 29 32} END
|  4> END
|  5> %pal nprocs 32 end
|  6> %maxcore 10000
|  7> * xyz 0 1
|  8>  C                 -3.67468900   -0.58320000   -0.59349200
|  9>  C                 -2.50808800    0.03557900   -0.35094900
| 10>  C                 -1.20688600   -0.58078100   -0.63854600
| 11>  C                  0.00301700    0.00301500   -0.36354900
| 12>  C                  1.23764300   -0.67407400   -0.67976300
| 13>  C                  2.52187100   -0.00977000   -0.36684500
| 14>  C                  3.69508500   -0.60941200   -0.61821600
| 15>  O                 -1.30954700   -1.79138500   -1.20903800
| 16>  O                  1.21974800   -1.80200500   -1.21044100
| 17>  C                  5.00524000   -0.00369000   -0.33192300
| 18>  C                  6.01585800   -0.80657000    0.22244600
| 19>  C                  7.27331400   -0.25762800    0.50495100
| 20>  C                  7.51526800    1.10996500    0.21243700
| 21>  C                  6.51123300    1.90244400   -0.34812700
| 22>  C                  5.25707400    1.34598700   -0.61623500
| 23>  O                  8.14662600   -1.16396400    1.05310400
| 24>  C                  9.48463900   -0.70684100    1.38042200
| 25>  O                  8.77007600    1.61131600    0.50097600
| 26>  C                 -4.98949800    0.01450700   -0.31520300
| 27>  C                 -5.99906800   -0.79681900    0.22972000
| 28>  C                 -7.26177600   -0.25710900    0.50527900
| 29>  C                 -7.51043200    1.11042500    0.21548900
| 30>  C                 -6.50775000    1.91079400   -0.33579500
| 31>  C                 -5.24812400    1.36323000   -0.59737900
| 32>  O                 -8.13292900   -1.17051700    1.04402500
| 33>  C                 -9.47580300   -0.72297900    1.36541800
| 34>  O                 -8.76992700    1.60196600    0.49732700
| 35>  H                 -3.69516700   -1.59821200   -1.01682500
| 36>  H                 -2.45911200    1.03515600    0.08866400
| 37>  H                  0.05191700    0.98063600    0.10162400
| 38>  H                  2.45427400    0.97928200    0.08555900
| 39>  H                  3.72364700   -1.61805700   -1.05792200
| 40>  H                 -0.34203000   -2.22118800   -1.40741400
| 41>  H                  5.84021200   -1.85905700    0.44919500
| 42>  H                  6.70051200    2.94873900   -0.57593200
| 43>  H                  4.47811300    1.96571800   -1.05795800
| 44>  H                  9.93706300   -1.61854500    1.78647500
| 45>  H                  9.99820600   -0.36676500    0.47525400
| 46>  H                  9.43726800    0.09124100    2.12848100
| 47>  H                  8.83490400    2.56796100    0.25600500
| 48>  H                 -5.81850000   -1.84886200    0.45472200
| 49>  H                 -6.70199900    2.95670300   -0.56190500
| 50>  H                 -4.47144600    1.98994400   -1.03329800
| 51>  H                 -9.92456600   -1.63934700    1.76525100
| 52>  H                 -9.43783100    0.07221600    2.11707400
| 53>  H                 -9.98637700   -0.38275700    0.45861100
| 54>  H                 -8.84024300    2.55946700    0.25588100
| 55> *
| 56> 
| 57>                          ****END OF INPUT****
================================================================================

------------------------------------------------------------------------------

                             **************************
                             *    2-layered ONIOM     *
                             **************************


------------------------------------------------------------------------------




Multiscale model                       ... QM1/QM2
QM2 method                             ... XTB2
Coupling Scheme                        ... subtractive
Embedding Scheme                       ... electrostatic
PrintLevel                             ... 1
Method for determining QM2 charges     ... Hirshfeld
Charge of total system                 ... 0
Charge alteration scheme               ... Charge shifting
Scaling factor for CS scheme           ... 0.06
Gradient projection scheme             ... Lever rule
Scaling factor for QM2 charges         ... 1.00
AutoFF method                          ... XTB2
Point charges in QM calc. from MM atoms... 40
              from charge shift scheme ... 12
Skip double counting of LA terms       ... YES
Skip double counting of LA terms (bond)... YES
Printing trajectories, xyz and allxyz files:
        QMMMRegion                     ... YES
        activeRegion                   ... NO
        activeRegionExt                ... NO
        qmRegion                       ... YES
        qm2Region                      ... NO
Parameter files:
        ORCA Forcefield Filename       ... enol_L_QM2.ORCAFF.prms.tmp
        QM-LA bond distances Filename  ... enol.H_DIST.prms.tmp
Forcefield type                        ... ORCA
Size of different subsystems (in atoms):
Size of QMMM System                    ... 47
Size of QM2 Subsystem                  ... 40
Size of QM1 Subsystem                  ... 7
Number of link atoms                   ... 2
Size of QM1 Subsystem plus link atoms  ... 9
Size of region for optimizer           ... 47
        optimized atoms = activeRegion ... 47
        fixed atoms (distance cutoff)  ... 0 ( 0.0)
Composition of different systems (atoms start counting at 0):
QM1 Subsystem                          ...   2   3   4   7   8  29  32 
Active atoms                           ... All atoms 

                       *****************************
                       * Geometry Optimization Run *
                       *****************************

Geometry optimization settings:
Update method            Update   .... BFGS
Choice of coordinates    CoordSys .... (2022) Redundant Internals
Initial Hessian          InHess   .... Almloef's Model
Max. no of cycles        MaxIter  .... 141

Convergence Tolerances:
Energy Change            TolE     ....  5.0000e-06 Eh
Max. Gradient            TolMAXG  ....  3.0000e-04 Eh/bohr
RMS Gradient             TolRMSG  ....  1.0000e-04 Eh/bohr
Max. Displacement        TolMAXD  ....  4.0000e-03 bohr
RMS Displacement         TolRMSD  ....  2.0000e-03 bohr
Strict Convergence                .... False

------------------------------------------------------------------------------
                        ORCA OPTIMIZATION COORDINATE SETUP
------------------------------------------------------------------------------

The optimization will be done in redundant internal coordinates (2022)
Making redundant internal coordinates   ...  (2022 redundants) done
Evaluating the initial hessian          ...  (Almloef) done
Evaluating the coordinates              ...  done
Calculating the B-matrix                .... done
Calculating the G-matrix                .... done
Diagonalizing the G-matrix              .... done
Small eigenvalue found = 8.194e-04
Small eigenvalue found = 3.982e-03
Small eigenvalue found = 8.122e-03
Small eigenvalue found = 1.263e-02
Small eigenvalue found = 1.670e-02
Small eigenvalue found = 1.786e-02
Small eigenvalue found = 2.030e-02
The first mode is                       ....   87
The number of degrees of freedom        ....  135

    -----------------------------------------------------------------
                    Redundant Internal Coordinates


    -----------------------------------------------------------------
         Definition                    Initial Value    Approx d2E/dq
    -----------------------------------------------------------------
      1. B(C   1,C   0)                  1.3426         0.743540   
      2. B(C   2,C   1)                  1.4682         0.468712   
      3. B(C   3,C   2)                  1.3712         0.669368   
      4. B(C   4,C   3)                  1.4432         0.513935   
      5. B(C   5,C   4)                  1.4793         0.449983   
      6. B(C   6,C   5)                  1.3413         0.747093   
      7. B(O   7,C   2)                  1.3422         0.666961   
      8. B(O   8,C   4)                  1.2467         0.947460   
      9. B(C   9,C   6)                  1.4715         0.463105   
     10. B(C  10,C   9)                  1.4047         0.591867   
     11. B(C  11,C  10)                  1.4008         0.600413   
     12. B(C  12,C  11)                  1.4193         0.561035   
     13. B(C  13,C  12)                  1.3965         0.609950   
     14. B(C  14,C  13)                  1.3980         0.606672   
     15. B(C  14,C   9)                  1.4021         0.597634   
     16. B(O  15,C  11)                  1.3728         0.596089   
     17. B(C  16,O  15)                  1.4513         0.446701   
     18. B(O  17,C  12)                  1.3817         0.576880   
     19. B(C  18,C   0)                  1.4709         0.464233   
     20. B(C  19,C  18)                  1.4051         0.590992   
     21. B(C  20,C  19)                  1.4006         0.600957   
     22. B(C  21,C  20)                  1.4198         0.559918   
     23. B(C  22,C  21)                  1.3964         0.610324   
     24. B(C  23,C  22)                  1.3982         0.606298   
     25. B(C  23,C  18)                  1.4020         0.597882   
     26. B(O  24,C  20)                  1.3724         0.596984   
     27. B(C  25,O  24)                  1.4515         0.446409   
     28. B(O  26,C  21)                  1.3811         0.578245   
     29. B(H  27,C   0)                  1.0999         0.347181   
     30. B(H  28,C   1)                  1.0931         0.356055   
     31. B(H  29,C   3)                  1.0838         0.368460   
     32. B(H  30,C   5)                  1.0897         0.360487   
     33. B(H  31,C   6)                  1.1007         0.346231   
     34. B(H  32,O   8)                  1.6290         0.044526   
     35. B(H  32,O   7)                  1.0771         0.338158   
     36. B(H  33,C  10)                  1.0909         0.358952   
     37. B(H  34,C  13)                  1.0874         0.363546   
     38. B(H  35,C  14)                  1.0890         0.361398   
     39. B(H  36,C   3)                 10.2926         0.000000   
     40. B(H  36,C  16)                  1.0958         0.352513   
     41. B(H  37,C  16)                  1.0949         0.353720   
     42. B(H  38,C  16)                  1.0949         0.353697   
     43. B(H  39,O  17)                  0.9896         0.466317   
     44. B(H  40,C  19)                  1.0909         0.358934   
     45. B(H  41,C  22)                  1.0876         0.363344   
     46. B(H  42,C  23)                  1.0890         0.361362   
     47. B(H  43,H  36)                 19.8617         0.000000   
     48. B(H  43,C   3)                 10.2852         0.000000   
     49. B(H  43,C  25)                  1.0959         0.352386   
     50. B(H  44,C  25)                  1.0949         0.353701   
     51. B(H  45,C  25)                  1.0949         0.353718   
     52. B(H  46,O  26)                  0.9900         0.465742   
     53. A(C   1,C   0,C  18)          123.7276         0.425761   
     54. A(C   1,C   0,H  27)          120.7294         0.361724   
     55. A(C  18,C   0,H  27)          115.5415         0.334145   
     56. A(C   0,C   1,H  28)          122.2105         0.363287   
     57. A(C   0,C   1,C   2)          122.7640         0.426494   
     58. A(C   2,C   1,H  28)          115.0214         0.336085   
     59. A(C   1,C   2,O   7)          113.2099         0.415583   
     60. A(C   1,C   2,C   3)          124.3294         0.418561   
     61. A(C   3,C   2,O   7)          122.4606         0.443015   
     62. A(C   4,C   3,H  29)          118.5985         0.343254   
     63. A(C   2,C   3,H  29)          120.6599         0.358924   
     64. A(C   2,C   3,C   4)          120.7406         0.425504   
     65. A(C   5,C   4,O   8)          120.5831         0.439343   
     66. A(C   3,C   4,C   5)          119.0539         0.396577   
     67. A(C   3,C   4,O   8)          120.3629         0.450040   
     68. A(C   6,C   5,H  30)          122.5349         0.364353   
     69. A(C   4,C   5,H  30)          116.2022         0.334502   
     70. A(C   4,C   5,C   6)          121.2591         0.423755   
     71. A(C   5,C   6,H  31)          120.4791         0.361849   
     72. A(C   9,C   6,H  31)          115.5835         0.333858   
     73. A(C   5,C   6,C   9)          123.9360         0.425940   
     74. A(C   2,O   7,H  32)          111.6836         0.348282   
     75. A(C   6,C   9,C  14)          121.1115         0.409340   
     76. A(C   6,C   9,C  10)          118.8197         0.408638   
     77. A(C  10,C   9,C  14)          120.0653         0.427630   
     78. A(C   9,C  10,C  11)          120.0935         0.427986   
     79. A(C  11,C  10,H  33)          118.7308         0.350809   
     80. A(C   9,C  10,H  33)          121.1736         0.349961   
     81. A(C  10,C  11,C  12)          119.2783         0.423906   
     82. A(C  12,C  11,O  15)          127.5896         0.420607   
     83. A(C  10,C  11,O  15)          113.1320         0.425738   
     84. A(C  11,C  12,C  13)          120.4607         0.425103   
     85. A(C  13,C  12,O  17)          122.0614         0.424445   
     86. A(C  11,C  12,O  17)          117.4777         0.418158   
     87. A(C  14,C  13,H  34)          119.9314         0.352181   
     88. A(C  12,C  13,H  34)          120.3280         0.352502   
     89. A(C  12,C  13,C  14)          119.7406         0.431105   
     90. A(C  13,C  14,H  35)          119.5354         0.351828   
     91. A(C   9,C  14,H  35)          120.1039         0.350937   
     92. A(C   9,C  14,C  13)          120.3576         0.429529   
     93. A(C  11,O  15,C  16)          117.9427         0.401345   
     94. A(O  15,C  16,H  38)          110.1077         0.331035   
     95. A(O  15,C  16,H  37)          110.1098         0.331038   
     96. A(O  15,C  16,H  36)          101.6628         0.330851   
     97. A(H  36,C  16,H  38)          111.7866         0.289055   
     98. A(H  37,C  16,H  38)          111.0228         0.289210   
     99. A(H  36,C  16,H  37)          111.7844         0.289058   
    100. A(C  12,O  17,H  39)          111.0110         0.358835   
    101. A(C  19,C  18,C  23)          120.0646         0.427549   
    102. A(C   0,C  18,C  23)          121.1813         0.409546   
    103. A(C   0,C  18,C  19)          118.7504         0.408706   
    104. A(C  20,C  19,H  40)          118.7033         0.350860   
    105. A(C  18,C  19,H  40)          121.1916         0.349871   
    106. A(C  18,C  19,C  20)          120.1028         0.427942   
    107. A(C  19,C  20,C  21)          119.2670         0.423824   
    108. A(C  21,C  20,O  24)          127.5889         0.420570   
    109. A(C  19,C  20,O  24)          113.1440         0.425922   
    110. A(C  20,C  21,C  22)          120.4564         0.424998   
    111. A(C  22,C  21,O  26)          122.1009         0.424671   
    112. A(C  20,C  21,O  26)          117.4426         0.418186   
    113. A(C  21,C  22,C  23)          119.7550         0.431105   
    114. A(C  23,C  22,H  41)          119.9102         0.352111   
    115. A(C  21,C  22,H  41)          120.3348         0.352505   
    116. A(C  22,C  23,H  42)          119.4732         0.351785   
    117. A(C  18,C  23,H  42)          120.1729         0.350955   
    118. A(C  18,C  23,C  22)          120.3502         0.429514   
    119. A(C  20,O  24,C  25)          117.9675         0.401405   
    120. A(H  44,C  25,H  45)          111.0439         0.289210   
    121. A(H  43,C  25,H  45)          111.7807         0.289041   
    122. A(O  24,C  25,H  45)          110.1118         0.331002   
    123. A(H  43,C  25,H  44)          111.7794         0.289039   
    124. A(O  24,C  25,H  44)          110.1119         0.330999   
    125. A(O  24,C  25,H  43)          101.6430         0.330795   
    126. A(C  21,O  26,H  46)          111.0536         0.358903   
    127. D(H  28,C   1,C   0,C  18)      0.8393         0.039362   
    128. D(C   2,C   1,C   0,H  27)      0.5503         0.039362   
    129. D(H  28,C   1,C   0,H  27)   -178.6790         0.039362   
    130. D(C   2,C   1,C   0,C  18)   -179.9314         0.039362   
    131. D(O   7,C   2,C   1,C   0)      2.3608         0.014960   
    132. D(C   3,C   2,C   1,H  28)      1.5237         0.014960   
    133. D(O   7,C   2,C   1,H  28)   -178.3588         0.014960   
    134. D(C   3,C   2,C   1,C   0)   -177.7567         0.014960   
    135. D(H  29,C   3,C   2,O   7)   -179.7515         0.036646   
    136. D(H  29,C   3,C   2,C   1)      0.3765         0.036646   
    137. D(C   4,C   3,C   2,C   1)   -179.9969         0.036646   
    138. D(C   4,C   3,C   2,O   7)     -0.1249         0.036646   
    139. D(C   5,C   4,C   3,H  29)     -0.3621         0.020946   
    140. D(C   5,C   4,C   3,C   2)   -179.9963         0.020946   
    141. D(O   8,C   4,C   3,C   2)      0.0852         0.020946   
    142. D(O   8,C   4,C   3,H  29)    179.7193         0.020946   
    143. D(H  30,C   5,C   4,C   3)     -0.6029         0.013803   
    144. D(C   6,C   5,C   4,O   8)     -1.3751         0.013803   
    145. D(H  30,C   5,C   4,O   8)    179.3155         0.013803   
    146. D(C   6,C   5,C   4,C   3)    178.7065         0.013803   
    147. D(H  31,C   6,C   5,H  30)    178.7662         0.039775   
    148. D(H  31,C   6,C   5,C   4)     -0.4989         0.039775   
    149. D(C   9,C   6,C   5,C   4)    179.9621         0.039775   
    150. D(C   9,C   6,C   5,H  30)     -0.7729         0.039775   
    151. D(H  32,O   7,C   2,C   3)      0.2209         0.033019   
    152. D(H  32,O   7,C   2,C   1)   -179.8941         0.033019   
    153. D(C  14,C   9,C   6,H  31)    137.9387         0.014607   
    154. D(C  14,C   9,C   6,C   5)    -42.5018         0.014607   
    155. D(C  10,C   9,C   6,H  31)    -41.3818         0.014607   
    156. D(C  10,C   9,C   6,C   5)    138.1777         0.014607   
    157. D(C  11,C  10,C   9,C   6)    179.9659         0.024115   
    158. D(H  33,C  10,C   9,C  14)   -179.8960         0.024115   
    159. D(H  33,C  10,C   9,C   6)     -0.5682         0.024115   
    160. D(C  11,C  10,C   9,C  14)      0.6381         0.024115   
    161. D(O  15,C  11,C  10,H  33)     -0.0285         0.024854   
    162. D(O  15,C  11,C  10,C   9)    179.4503         0.024854   
    163. D(C  12,C  11,C  10,H  33)    179.8900         0.024854   
    164. D(C  12,C  11,C  10,C   9)     -0.6312         0.024854   
    165. D(O  17,C  12,C  11,O  15)      0.1679         0.021564   
    166. D(O  17,C  12,C  11,C  10)   -179.7376         0.021564   
    167. D(C  13,C  12,C  11,O  15)   -179.9504         0.021564   
    168. D(C  13,C  12,C  11,C  10)      0.1441         0.021564   
    169. D(H  34,C  13,C  12,O  17)      0.1803         0.025694   
    170. D(H  34,C  13,C  12,C  11)   -179.6960         0.025694   
    171. D(C  14,C  13,C  12,O  17)   -179.7843         0.025694   
    172. D(C  14,C  13,C  12,C  11)      0.3395         0.025694   
    173. D(H  35,C  14,C  13,H  34)      0.3372         0.025403   
    174. D(H  35,C  14,C  13,C  12)   -179.6981         0.025403   
    175. D(C   9,C  14,C  13,H  34)    179.6981         0.025403   
    176. D(C   9,C  14,C  13,C  12)     -0.3372         0.025403   
    177. D(H  35,C  14,C   9,C  10)    179.2073         0.024612   
    178. D(H  35,C  14,C   9,C   6)     -0.1048         0.024612   
    179. D(C  13,C  14,C   9,C  10)     -0.1500         0.024612   
    180. D(C  13,C  14,C   9,C   6)   -179.4621         0.024612   
    181. D(C  16,O  15,C  11,C  12)     -0.2375         0.025929   
    182. D(C  16,O  15,C  11,C  10)    179.6729         0.025929   
    183. D(H  38,C  16,O  15,C  11)     61.4050         0.015714   
    184. D(H  37,C  16,O  15,C  11)    -61.3380         0.015714   
    185. D(H  36,C  16,O  15,C  11)   -179.9657         0.015714   
    186. D(H  39,O  17,C  12,C  13)     -0.1591         0.024189   
    187. D(H  39,O  17,C  12,C  11)    179.7206         0.024189   
    188. D(C  19,C  18,C   0,H  27)     40.1857         0.014678   
    189. D(C  19,C  18,C   0,C   1)   -139.3554         0.014678   
    190. D(C  23,C  18,C   0,H  27)   -139.1152         0.014678   
    191. D(C  23,C  18,C   0,C   1)     41.3437         0.014678   
    192. D(H  40,C  19,C  18,C  23)    179.8914         0.024040   
    193. D(H  40,C  19,C  18,C   0)      0.5824         0.024040   
    194. D(C  20,C  19,C  18,C  23)     -0.6627         0.024040   
    195. D(C  20,C  19,C  18,C   0)   -179.9717         0.024040   
    196. D(O  24,C  20,C  19,H  40)     -0.0039         0.024901   
    197. D(O  24,C  20,C  19,C  18)   -179.4635         0.024901   
    198. D(C  21,C  20,C  19,H  40)   -179.9162         0.024901   
    199. D(C  21,C  20,C  19,C  18)      0.6242         0.024901   
    200. D(O  26,C  21,C  20,O  24)     -0.1465         0.021475   
    201. D(O  26,C  21,C  20,C  19)    179.7517         0.021475   
    202. D(C  22,C  21,C  20,O  24)    179.9807         0.021475   
    203. D(C  22,C  21,C  20,C  19)     -0.1210         0.021475   
    204. D(H  41,C  22,C  21,O  26)     -0.1935         0.025728   
    205. D(H  41,C  22,C  21,C  20)    179.6731         0.025728   
    206. D(C  23,C  22,C  21,O  26)    179.7863         0.025728   
    207. D(C  23,C  22,C  21,C  20)     -0.3471         0.025728   
    208. D(H  42,C  23,C  22,H  41)     -0.4100         0.025370   
    209. D(H  42,C  23,C  22,C  21)    179.6102         0.025370   
    210. D(C  18,C  23,C  22,H  41)   -179.7073         0.025370   
    211. D(C  18,C  23,C  22,C  21)      0.3129         0.025370   
    212. D(H  42,C  23,C  18,C  19)   -179.1019         0.024633   
    213. D(H  42,C  23,C  18,C   0)      0.1899         0.024633   
    214. D(C  22,C  23,C  18,C  19)      0.1905         0.024633   
    215. D(C  22,C  23,C  18,C   0)    179.4823         0.024633   
    216. D(C  25,O  24,C  20,C  21)      0.1475         0.026012   
    217. D(C  25,O  24,C  20,C  19)   -179.7560         0.026012   
    218. D(H  45,C  25,O  24,C  20)     61.3856         0.015693   
    219. D(H  44,C  25,O  24,C  20)    -61.3882         0.015693   
    220. D(H  43,C  25,O  24,C  20)    179.9994         0.015693   
    221. D(H  46,O  26,C  21,C  22)      0.1162         0.024310   
    222. D(H  46,O  26,C  21,C  20)   -179.7543         0.024310   
    -----------------------------------------------------------------

Number of atoms                         .... 47
Number of degrees of freedom            .... 222


         *************************************************************
         *                GEOMETRY OPTIMIZATION CYCLE   1            *
         *************************************************************
                    ************************************                      
                    *       QM/   XTB2 SP Energy       *                      
                    ************************************                      


------------------------------------------------------------------------------
                          XTB2 - FULL SYSTEM                         
------------------------------------------------------------------------------
Running XTB calculation
---------------------------------
CARTESIAN COORDINATES (ANGSTROEM)
---------------------------------
  C    -3.674689   -0.583200   -0.593492
  C    -2.508088    0.035579   -0.350949
  C    -1.206886   -0.580781   -0.638546
  C     0.003017    0.003015   -0.363549
  C     1.237643   -0.674074   -0.679763
  C     2.521871   -0.009770   -0.366845
  C     3.695085   -0.609412   -0.618216
  O    -1.309547   -1.791385   -1.209038
  O     1.219748   -1.802005   -1.210441
  C     5.005240   -0.003690   -0.331923
  C     6.015858   -0.806570    0.222446
  C     7.273314   -0.257628    0.504951
  C     7.515268    1.109965    0.212437
  C     6.511233    1.902444   -0.348127
  C     5.257074    1.345987   -0.616235
  O     8.146626   -1.163964    1.053104
  C     9.484639   -0.706841    1.380422
  O     8.770076    1.611316    0.500976
  C    -4.989498    0.014507   -0.315203
  C    -5.999068   -0.796819    0.229720
  C    -7.261776   -0.257109    0.505279
  C    -7.510432    1.110425    0.215489
  C    -6.507750    1.910794   -0.335795
  C    -5.248124    1.363230   -0.597379
  O    -8.132929   -1.170517    1.044025
  C    -9.475803   -0.722979    1.365418
  O    -8.769927    1.601966    0.497327
  H    -3.695167   -1.598212   -1.016825
  H    -2.459112    1.035156    0.088664
  H     0.051917    0.980636    0.101624
  H     2.454274    0.979282    0.085559
  H     3.723647   -1.618057   -1.057922
  H    -0.342030   -2.221188   -1.407414
  H     5.840212   -1.859057    0.449195
  H     6.700512    2.948739   -0.575932
  H     4.478113    1.965718   -1.057958
  H     9.937063   -1.618545    1.786475
  H     9.998206   -0.366765    0.475254
  H     9.437268    0.091241    2.128481
  H     8.834904    2.567961    0.256005
  H    -5.818500   -1.848862    0.454722
  H    -6.701999    2.956703   -0.561905
  H    -4.471446    1.989944   -1.033298
  H    -9.924566   -1.639347    1.765251
  H    -9.437831    0.072216    2.117074
  H    -9.986377   -0.382757    0.458611
  H    -8.840243    2.559467    0.255881

----------------------------
CARTESIAN COORDINATES (A.U.)
----------------------------
  NO LB    ZA    FRAG    MASS        X           Y           Z
   0 C   6.0000    0    12.011   -6.944156   -1.102088   -1.121537
   1 C   6.0000    0    12.011   -4.739599    0.067235   -0.663197
   2 C   6.0000    0    12.011   -2.280684   -1.097517   -1.206677
   3 C   6.0000    0    12.011    0.005701    0.005698   -0.687008
   4 C   6.0000    0    12.011    2.338806   -1.273815   -1.284566
   5 C   6.0000    0    12.011    4.765646   -0.018463   -0.693237
   6 C   6.0000    0    12.011    6.982699   -1.151622   -1.168259
   7 O   8.0000    0    15.999   -2.474685   -3.385227   -2.284751
   8 O   8.0000    0    15.999    2.304990   -3.405296   -2.287402
   9 C   6.0000    0    12.011    9.458533   -0.006973   -0.627244
  10 C   6.0000    0    12.011   11.368324   -1.524196    0.420362
  11 C   6.0000    0    12.011   13.744572   -0.486846    0.954219
  12 C   6.0000    0    12.011   14.201798    2.097530    0.401448
  13 C   6.0000    0    12.011   12.304447    3.595098   -0.657865
  14 C   6.0000    0    12.011    9.934430    2.543547   -1.164515
  15 O   8.0000    0    15.999   15.394892   -2.199573    1.990078
  16 C   6.0000    0    12.011   17.923370   -1.335736    2.608620
  17 O   8.0000    0    15.999   16.573042    3.044946    0.946707
  18 C   6.0000    0    12.011   -9.428785    0.027414   -0.595647
  19 C   6.0000    0    12.011  -11.336596   -1.505770    0.434108
  20 C   6.0000    0    12.011  -13.722768   -0.485866    0.954839
  21 C   6.0000    0    12.011  -14.192660    2.098399    0.407215
  22 C   6.0000    0    12.011  -12.297865    3.610877   -0.634561
  23 C   6.0000    0    12.011   -9.917517    2.576131   -1.128883
  24 O   8.0000    0    15.999  -15.369008   -2.211957    1.972921
  25 C   6.0000    0    12.011  -17.906673   -1.366232    2.580266
  26 O   8.0000    0    15.999  -16.572760    3.027277    0.939812
  27 H   1.0000    0     1.008   -6.982854   -3.020183   -1.921521
  28 H   1.0000    0     1.008   -4.647048    1.956161    0.167551
  29 H   1.0000    0     1.008    0.098109    1.853133    0.192042
  30 H   1.0000    0     1.008    4.637906    1.850575    0.161683
  31 H   1.0000    0     1.008    7.036673   -3.057685   -1.999183
  32 H   1.0000    0     1.008   -0.646343   -4.197437   -2.659627
  33 H   1.0000    0     1.008   11.036401   -3.513109    0.848856
  34 H   1.0000    0     1.008   12.662133    5.572309   -1.088354
  35 H   1.0000    0     1.008    8.462407    3.714669   -1.999251
  36 H   1.0000    0     1.008   18.778328   -3.058607    3.375948
  37 H   1.0000    0     1.008   18.893871   -0.693085    0.898100
  38 H   1.0000    0     1.008   17.833852    0.172421    4.022246
  39 H   1.0000    0     1.008   16.695549    4.852743    0.483779
  40 H   1.0000    0     1.008  -10.995372   -3.493843    0.859300
  41 H   1.0000    0     1.008  -12.664943    5.587359   -1.061847
  42 H   1.0000    0     1.008   -8.449808    3.760449   -1.952650
  43 H   1.0000    0     1.008  -18.754712   -3.097917    3.335841
  44 H   1.0000    0     1.008  -17.834916    0.136468    4.000690
  45 H   1.0000    0     1.008  -18.871518   -0.723306    0.866649
  46 H   1.0000    0     1.008  -16.705638    4.836692    0.483545

---------------------------------   --------------------
FINAL SINGLE POINT ENERGY (L-QM2)      -79.480561728470
---------------------------------   --------------------
------------------------------------------------------------------------------
                                  XTB2 - SMALL SYSTEM                         
------------------------------------------------------------------------------
Running XTB calculation
---------------------------------
CARTESIAN COORDINATES (ANGSTROEM)
---------------------------------
  C    -1.206886   -0.580781   -0.638546
  C     0.003017    0.003015   -0.363549
  C     1.237643   -0.674074   -0.679763
  O    -1.309547   -1.791385   -1.209038
  O     1.219748   -1.802005   -1.210441
  H     0.051917    0.980636    0.101624
  H    -0.342030   -2.221188   -1.407414
  H    -2.186037   -0.116972   -0.422130
  H     2.203832   -0.174285   -0.444339

----------------------------
CARTESIAN COORDINATES (A.U.)
----------------------------
  NO LB    ZA    FRAG    MASS        X           Y           Z
   0 C   6.0000    0    12.011   -2.280684   -1.097517   -1.206677
   1 C   6.0000    0    12.011    0.005701    0.005698   -0.687008
   2 C   6.0000    0    12.011    2.338806   -1.273815   -1.284566
   3 O   8.0000    0    15.999   -2.474685   -3.385227   -2.284751
   4 O   8.0000    0    15.999    2.304990   -3.405296   -2.287402
   5 H   1.0000    0     1.008    0.098109    1.853133    0.192042
   6 H   1.0000    0     1.008   -0.646343   -4.197437   -2.659627
   7 H   1.0000    0     1.008   -4.131010   -0.221045   -0.797710
   8 H   1.0000    0     1.008    4.164640   -0.329350   -0.839679

---------------------------------   --------------------
FINAL SINGLE POINT ENERGY (S-QM2)      -16.546743038800
---------------------------------   --------------------
------------------------------------------------------------------------------
                                QM - SMALL SYSTEM                           
------------------------------------------------------------------------------
---------------------------------
CARTESIAN COORDINATES (ANGSTROEM)
---------------------------------
  C     -1.206886   -0.580781   -0.638546
  C      0.003017    0.003015   -0.363549
  C      1.237643   -0.674074   -0.679763
  O     -1.309547   -1.791385   -1.209038
  O      1.219748   -1.802005   -1.210441
  H      0.051917    0.980636    0.101624
  H     -0.342030   -2.221188   -1.407414
  H     -2.186037   -0.116972   -0.422130
  H      2.203832   -0.174285   -0.444339

----------------------------
CARTESIAN COORDINATES (A.U.)
----------------------------
  NO LB      ZA    FRAG     MASS         X           Y           Z
   0 C     4.0000*   0    12.011   -2.280684   -1.097517   -1.206677
   1 C     4.0000*   0    12.011    0.005701    0.005698   -0.687008
   2 C     4.0000*   0    12.011    2.338806   -1.273815   -1.284566
   3 O     6.0000*   0    15.999   -2.474685   -3.385227   -2.284751
   4 O     6.0000*   0    15.999    2.304990   -3.405296   -2.287402
   5 H     1.0000    0     1.008    0.098109    1.853133    0.192042
   6 H     1.0000    0     1.008   -0.646343   -4.197437   -2.659627
   7 H     1.0000    0     1.008   -4.131010   -0.221045   -0.797710
   8 H     1.0000    0     1.008    4.164640   -0.329350   -0.839679
* core charge reduced due to ECP

--------------------------------
INTERNAL COORDINATES (ANGSTROEM)
--------------------------------
 C      0   0   0     0.000000000000     0.00000000     0.00000000
 C      1   0   0     1.371242644113     0.00000000     0.00000000
 C      2   1   0     1.443170872625   120.74059837     0.00000000
 O      1   2   3     1.342222950110   122.46059196   359.87511952
 O      3   2   1     1.246662629371   120.36288625     0.08516057
 H      2   1   3     1.083752716061   120.65987724   180.37338671
 H      4   1   2     1.077113179510   111.68355265     0.22089535
 H      1   2   3     1.104848584809   124.32943732   180.00307788
 H      3   2   1     1.112985109948   119.05391924   180.00374796

---------------------------
INTERNAL COORDINATES (A.U.)
---------------------------
 C      0   0   0     0.000000000000     0.00000000     0.00000000
 C      1   0   0     2.591273060528     0.00000000     0.00000000
 C      2   1   0     2.727197713713   120.74059837     0.00000000
 O      1   2   3     2.536433786371   122.46059196   359.87511952
 O      3   2   1     2.355850950905   120.36288625     0.08516057
 H      2   1   3     2.047995830249   120.65987724   180.37338671
 H      4   1   2     2.035448924511   111.68355265     0.22089535
 H      1   2   3     2.087861244740   124.32943732   180.00307788
 H      3   2   1     2.103237048935   119.05391924   180.00374796

---------------------
BASIS SET INFORMATION
---------------------
There are 3 groups of distinct atoms

 Group   1 Type C   : 6s6p2d contracted to 2s2p1d pattern {42/42/2}
 Group   2 Type O   : 6s6p2d contracted to 2s2p1d pattern {42/42/2}
 Group   3 Type H   : 8s2p contracted to 2s1p pattern {53/2}

Atom   0C    basis set group =>   1
Atom   1C    basis set group =>   1
Atom   2C    basis set group =>   1
Atom   3O    basis set group =>   2
Atom   4O    basis set group =>   2
Atom   5H    basis set group =>   3
Atom   6H    basis set group =>   3
Atom   7H    basis set group =>   3
Atom   8H    basis set group =>   3
---------------------------------
AUXILIARY/J BASIS SET INFORMATION
---------------------------------
There are 3 groups of distinct atoms

 Group   1 Type C   : 12s5p4d2f1g contracted to 6s4p3d1f1g pattern {711111/2111/211/2/1}
 Group   2 Type O   : 12s5p4d2f1g contracted to 6s4p3d1f1g pattern {711111/2111/211/2/1}
 Group   3 Type H   : 5s2p1d contracted to 3s1p1d pattern {311/2/1}

Atom   0C    basis set group =>   1
Atom   1C    basis set group =>   1
Atom   2C    basis set group =>   1
Atom   3O    basis set group =>   2
Atom   4O    basis set group =>   2
Atom   5H    basis set group =>   3
Atom   6H    basis set group =>   3
Atom   7H    basis set group =>   3
Atom   8H    basis set group =>   3
-------------------------
ECP PARAMETER INFORMATION
-------------------------

 Group 1, Type C  ECP vDZP-ECP (replacing 2 core electrons, lmax=3)
 Group 2, Type O  ECP vDZP-ECP (replacing 2 core electrons, lmax=3)

Atom   0C    ECP group =>   1
Atom   1C    ECP group =>   1
Atom   2C    ECP group =>   1
Atom   3O    ECP group =>   2
Atom   4O    ECP group =>   2



           ************************************************************
           *        Program running with 32 parallel MPI-processes    *
           *              working on a common directory               *
           ************************************************************
------------------------------------------------------------------------------
                             ORCA STARTUP CALCULATIONS
                           -- RI-GTO INTEGRALS CHOSEN --
------------------------------------------------------------------------------
------------------------------------------------------------------------------
                   ___                                                        
                  /   \      - P O W E R E D   B Y -                         
                 /     \                                                     
                 |  |  |   _    _      __       _____    __    __             
                 |  |  |  | |  | |    /  \     |  _  \  |  |  /  |          
                  \  \/   | |  | |   /    \    | | | |  |  | /  /          
                 / \  \   | |__| |  /  /\  \   | |_| |  |  |/  /          
                |  |  |   |  __  | /  /__\  \  |    /   |      \           
                |  |  |   | |  | | |   __   |  |    \   |  |\   \          
                \     /   | |  | | |  |  |  |  | |\  \  |  | \   \       
                 \___/    |_|  |_| |__|  |__|  |_| \__\ |__|  \__/        
                                                                              
                      - O R C A' S   B I G   F R I E N D -                    
                                      &                                       
                       - I N T E G R A L  F E E D E R -                       
                                                                              
 v1 FN, 2020, v2 2021, v3 2022-2024                                           
------------------------------------------------------------------------------


----------------------
SHARK INTEGRAL PACKAGE
----------------------

Number of atoms                             ...      9
Number of basis functions                   ...     85
Number of shells                            ...     37
Maximum angular momentum                    ...      2
Integral batch strategy                     ... SHARK/LIBINT Hybrid
RI-J (if used) integral strategy            ... SPLIT-RIJ (Revised 2003 algorithm where possible)
Printlevel                                  ...      1
Contraction scheme used                     ... SEGMENTED contraction
Prescreening option                         ... SCHWARTZ
   Thresh                                   ... 2.500e-11
   Tcut                                     ... 2.500e-12
   Tpresel                                  ... 2.500e-12 
Coulomb Range Separation                    ... NOT USED
Exchange Range Separation                   ... Long Range
   Mu parameter                             ... 3.000e-01
   Scaling (regular/separated)              ... 1.670e-01 8.330e-01
Multipole approximations                    ... NOT USED
Finite Nucleus Model                        ... NOT USED
CABS basis                                  ... NOT available
Auxiliary Coulomb fitting basis             ... AVAILABLE
   # of basis functions in Aux-J            ...    289
   # of shells in Aux-J                     ...     95
   Maximum angular momentum in Aux-J        ...      4
Auxiliary J/K fitting basis                 ... NOT available
Auxiliary Correlation fitting basis         ... NOT available
Auxiliary 'external' fitting basis          ... NOT available

Checking pre-screening integrals            ... done (  0.0 sec) Dimension = 37
Check shell pair data                       ... done (  0.0 sec)
Shell pair information
Shell pair cut-off parameter TPreSel        ...   2.5e-12
Total number of shell pairs                 ...       703
Shell pairs after pre-screening             ...       703
Total number of primitive shell pairs       ...      6236
Primitive shell pairs kept                  ...      5773
          la=0 lb=0:    171 shell pairs
          la=1 lb=0:    252 shell pairs
          la=1 lb=1:    105 shell pairs
          la=2 lb=0:     90 shell pairs
          la=2 lb=1:     70 shell pairs
          la=2 lb=2:     15 shell pairs

Reading point charge file                   ... ok (52 point charges)
Calculating one electron integrals          ... done (  0.0 sec)
Calculating ECP integrals                   ... done (  0.0 sec)
Calculating RI/J V-Matrix + Cholesky decomp.... done (  0.0 sec)
Calculating Nuclear repulsion               ... (+Point charges) done (  0.0 sec) ENN=     88.819179389349 Eh

Diagonalization of the overlap matrix:
Smallest eigenvalue                        ... 1.325e-03
Time for diagonalization                   ...    0.005 sec
Threshold for overlap eigenvalues          ... 1.000e-07
Number of eigenvalues below threshold      ... 0
Time for construction of square roots      ...    0.000 sec
Total time needed                          ...    0.006 sec

-------------------
DFT GRID GENERATION
-------------------

General Integration Accuracy     IntAcc      ... 4.388
Radial Grid Type                 RadialGrid  ... OptM3 with GC (2021)
Angular Grid (max. ang.)         AngularGrid ... 4 (Lebedev-302)
Angular grid pruning method      GridPruning ... 4 (adaptive)
Weight generation scheme         WeightScheme... mBecke (2022)
Basis function cutoff            BFCut       ... 1.0000e-11
Integration weight cutoff        WCut        ... 1.0000e-14
Partially contracted basis set               ... off
Rotationally invariant grid construction     ... off
Angular grids for H and He will be reduced by one unit

Total number of grid points                  ...    43415
Total number of batches                      ...      683
Average number of points per batch           ...       63
Average number of grid points per atom       ...     4824

--------------------
COSX GRID GENERATION
--------------------

GRIDX 1
-------
General Integration Accuracy     IntAcc      ... 3.816
Radial Grid Type                 RadialGrid  ... OptM3 with GC (2021)
Angular Grid (max. ang.)         AngularGrid ... 1 (Lebedev-50)
Angular grid pruning method      GridPruning ... 4 (adaptive)
Weight generation scheme         WeightScheme... mBecke (2022)
Basis function cutoff            BFCut       ... 1.0000e-11
Integration weight cutoff        WCut        ... 1.0000e-14
Partially contracted basis set               ... on
Rotationally invariant grid construction     ... off
Angular grids for H and He will be reduced by one unit

Total number of grid points                  ...     5560
Total number of batches                      ...       48
Average number of points per batch           ...      115
Average number of grid points per atom       ...      618
UseSFitting                                  ... on

GRIDX 2
-------
General Integration Accuracy     IntAcc      ... 4.020
Radial Grid Type                 RadialGrid  ... OptM3 with GC (2021)
Angular Grid (max. ang.)         AngularGrid ... 2 (Lebedev-110)
Angular grid pruning method      GridPruning ... 4 (adaptive)
Weight generation scheme         WeightScheme... mBecke (2022)
Basis function cutoff            BFCut       ... 1.0000e-11
Integration weight cutoff        WCut        ... 1.0000e-14
Partially contracted basis set               ... on
Rotationally invariant grid construction     ... off
Angular grids for H and He will be reduced by one unit

Total number of grid points                  ...    12329
Total number of batches                      ...      101
Average number of points per batch           ...      122
Average number of grid points per atom       ...     1370
UseSFitting                                  ... on

GRIDX 3
-------
General Integration Accuracy     IntAcc      ... 4.338
Radial Grid Type                 RadialGrid  ... OptM3 with GC (2021)
Angular Grid (max. ang.)         AngularGrid ... 3 (Lebedev-194)
Angular grid pruning method      GridPruning ... 4 (adaptive)
Weight generation scheme         WeightScheme... mBecke (2022)
Basis function cutoff            BFCut       ... 1.0000e-11
Integration weight cutoff        WCut        ... 1.0000e-14
Partially contracted basis set               ... on
Rotationally invariant grid construction     ... off
Angular grids for H and He will be reduced by one unit

Total number of grid points                  ...    27239
Total number of batches                      ...      218
Average number of points per batch           ...      124
Average number of grid points per atom       ...     3027
UseSFitting                                  ... on
Initializing property integral containers    ... done (  0.0 sec)

SHARK setup successfully completed in   0.4 seconds

Maximum memory used throughout the entire STARTUP-calculation: 12.7 MB


           ************************************************************
           *        Program running with 32 parallel MPI-processes    *
           *              working on a common directory               *
           ************************************************************
-------------------------------------------------------------------------------
                                 ORCA GUESS
                   Start orbitals & Density for SCF / CASSCF
-------------------------------------------------------------------------------

------------
SCF SETTINGS
------------
Hamiltonian:
 Density Functional     Method          .... DFT(GTOs)
 Exchange Functional    Exchange        .... WB97X-V
 Correlation Functional Correlation     .... WB97X-V
 Gradients option       PostSCFGGA      .... off
 Hybrid DFT is turned on
   Fraction HF Exchange ScalHFX         ....  0.167000
   Scaling of DF-GGA-X  ScalDFX         ....  0.000000
   Scaling of DF-GGA-C  ScalDFC         ....  1.000000
   Scaling of DF-LDA-C  ScalLDAC        ....  1.000000
   Perturbative correction              ....  0.000000
 Long-range corrected/Screened/Range-Separated Hybrid DFT is turned on
   Amount of maximum screened exact exchange              ....  0.833000
   Range separation parameter mu (erf(mu*r12)/r12)        ....  0.300000
   NL short-range parameter             ....  6.000000
   NL long-range parameter              ....  0.010000
 RI-approximation to the Coulomb term is turned on
   Number of AuxJ basis functions       .... 289
   RIJ-COSX (HFX calculated with COS-X)).... on


General Settings:
 Integral files         IntName         .... enol
 Hartree-Fock type      HFTyp           .... RHF
 Total Charge           Charge          ....    0
 Multiplicity           Mult            ....    1
 Number of Electrons    NEL             ....   28
 Basis Dimension        Dim             ....   85
 Nuclear Repulsion      ENuc            ....     88.8191793893 Eh

Convergence Acceleration:
 AO-DIIS                CNVDIIS         .... on
   Start iteration      DIISMaxIt       ....    12
   Startup error        DIISStart       ....  0.200000
   # of expansion vecs  DIISMaxEq       ....     5
   Bias factor          DIISBfac        ....   1.050
   Max. coefficient     DIISMaxC        ....  10.000
 MO-DIIS                CNVKDIIS        .... off
 Trust-Rad. Augm. Hess. CNVTRAH         .... auto
   Auto Start mean grad. ratio tolernc. ....  1.125000
   Auto Start start iteration           ....    50
   Auto Start num. interpolation iter.  ....    10
   Max. Number of Micro iterations      ....    24
   Max. Number of Macro iterations      .... Maxiter - #DIIS iter
   Number of Davidson start vectors     ....     2
   Converg. threshold    (grad. norm)   ....   1.000e-05
   Grad. Scal. Fac. for Micro threshold ....   0.100
   Minimum threshold for Micro iter.    ....   1.000e-02
   NR start threshold (gradient norm)   ....   1.000e-04
   Initial trust radius                 ....   0.400
   Minimum AH scaling param. (alpha)    ....   1.000
   Maximum AH scaling param. (alpha)    .... 1000.000
   Quad. conv. algorithm                .... NR
   White noise on init. David. guess    .... on
   Maximum white noise                  ....   0.010
   Pseudo random numbers                .... off
   Inactive MOs                         .... canonical
   Orbital update algorithm             .... Taylor
   Preconditioner                       .... Diag
   Full preconditioner red. dimension   ....   250
 SOSCF                  CNVSOSCF        .... on
   Start iteration      SOSCFMaxIt      ....   150
   Startup grad/error   SOSCFStart      ....  0.003300
   Hessian update       SOSCFHessUp     .... L-BFGS
 Level Shifting         CNVShift        .... on
   Level shift para.    LevelShift      ....    0.2500
   Turn off err/grad.   ShiftErr        ....    0.0010
 Zerner damping         CNVZerner       .... off
 Static damping         CNVDamp         .... on
   Fraction old density DampFac         ....    0.7000
   Max. Damping (<1)    DampMax         ....    0.9800
   Min. Damping (>=0)   DampMin         ....    0.0000
   Turn off err/grad.   DampErr         ....    0.1000

SCF Procedure:
 Maximum # iterations   MaxIter         ....   125
 SCF integral mode      SCFMode         .... Direct
   Integral package                     .... SHARK and LIBINT hybrid scheme
 Reset frequency        DirectResetFreq ....    20
 Integral Threshold     Thresh          ....  2.500e-11 Eh
 Primitive CutOff       TCut            ....  2.500e-12 Eh

Convergence Tolerance:
 Convergence Check Mode ConvCheckMode   .... Total+1el-Energy
 Convergence forced     ConvForced      .... 0
 Energy Change          TolE            ....  1.000e-08 Eh
 1-El. energy change                    ....  1.000e-05 Eh
 Orbital Gradient       TolG            ....  1.000e-05
 Orbital Rotation angle TolX            ....  1.000e-05
 DIIS Error             TolErr          ....  5.000e-07

------------------------------
INITIAL GUESS: MODEL POTENTIAL
------------------------------
Loading Hartree-Fock densities                     ... done
Atomic calculation to generate a density for atom 0 (C  with ECP)
  Multiplicity assumed   :    1
  Atomic configuration   : 1s2 2s2 2p2 
  Number of open shells  : 1
  Command: /sob/orca601/orca enol_atom6.inp "" > enol_atom6.out
Returned from the atomic calculation with res=0
Atomic calculation to generate a density for atom 3 (O  with ECP)
  Multiplicity assumed   :    3
  Atomic configuration   : 1s2 2s2 2p4 
  Number of open shells  : 1
  Command: /sob/orca601/orca enol_atom8.inp "" > enol_atom8.out
Returned from the atomic calculation with res=0
Calculating cut-offs                               ... done
Initializing the effective Hamiltonian             ... done
Setting up the integral package (SHARK)            ... done
Starting the Coulomb interaction                   ... done (   0.0 sec)
Making the grid                                    ... done (   0.0 sec)
Mapping shells                                     ... done
Starting the XC term evaluation                    ... done (   0.0 sec)
  promolecular density results
     # of electrons  =     37.999073293
     EX              =    -22.366804239
     EC              =     -1.590141887
     EX+EC           =    -23.956946126
Transforming the Hamiltonian                       ... done (   0.0 sec)
Diagonalizing the Hamiltonian                      ... done (   0.0 sec)
Back transforming the eigenvectors                 ... done (   0.0 sec)
Now organizing SCF variables                       ... done
                      ------------------
                      INITIAL GUESS DONE (   0.6 sec)
                      ------------------
             **** ENERGY FILE WAS UPDATED (enol.en.tmp) ****
Finished Guess after   0.7 sec
Maximum memory used throughout the entire GUESS-calculation: 7.7 MB


           ************************************************************
           *        Program running with 32 parallel MPI-processes    *
           *              working on a common directory               *
           ************************************************************

-------------------------------------------------------------------------------------------
                                      ORCA LEAN-SCF
                              memory conserving SCF solver
-------------------------------------------------------------------------------------------

----------------------------------------D-I-I-S--------------------------------------------
Iteration    Energy (Eh)           Delta-E    RMSDP     MaxDP     DIISErr   Damp  Time(sec)
-------------------------------------------------------------------------------------------
               ***  Starting incremental Fock matrix formation  ***
    1    -51.4412003740941941     0.00e+00  5.07e-03  7.13e-02  1.76e-01  0.700   0.2
    2    -51.4960058861939842    -5.48e-02  3.65e-03  4.71e-02  9.44e-02  0.700   0.1
                               ***Turning on AO-DIIS***
    3    -51.5233082120973052    -2.73e-02  2.00e-03  2.28e-02  5.34e-02  0.700   0.1
    4    -51.5397387772815136    -1.64e-02  4.22e-03  4.50e-02  3.30e-02  0.000   0.1
    5    -51.5752548298316071    -3.55e-02  4.30e-04  6.60e-03  4.91e-03  0.000   0.1
                              *** Initializing SOSCF ***
---------------------------------------S-O-S-C-F--------------------------------------
Iteration    Energy (Eh)           Delta-E    RMSDP     MaxDP     MaxGrad    Time(sec)
--------------------------------------------------------------------------------------
    6    -51.5754173732289019    -1.63e-04  2.00e-04  3.35e-03  3.06e-03     0.1
               *** Restarting incremental Fock matrix formation ***
    7    -51.5753974812670606     1.99e-05  1.69e-04  2.27e-03  1.44e-03     0.2
    8    -51.5754227808565702    -2.53e-05  2.12e-04  3.35e-03  5.62e-04     0.2
    9    -51.5754289305530733    -6.15e-06  6.84e-05  1.35e-03  4.37e-04     0.2
   10    -51.5754324685242409    -3.54e-06  1.83e-05  3.26e-04  7.86e-05     0.2
   11    -51.5754326016839286    -1.33e-07  5.16e-06  7.85e-05  2.29e-05     0.2
   12    -51.5754326198136823    -1.81e-08  1.50e-06  2.59e-05  1.01e-05     0.1
   13    -51.5754326231801485    -3.37e-09  5.62e-07  8.74e-06  2.46e-06     0.1
                 **** Energy Check signals convergence ****

               *****************************************************
               *                     SUCCESS                       *
               *           SCF CONVERGED AFTER  13 CYCLES          *
               *****************************************************

Recomputing exchange energy using gridx3       ... done (    0.259 sec)
Old exchange energy                            :     -5.654985661 Eh
New exchange energy                            :     -5.654982204 Eh
Exchange energy change after final integration :      0.000003457 Eh
Total energy after final integration           :    -51.575429166 Eh
             **** ENERGY FILE WAS UPDATED (enol.en.tmp) ****

----------------
TOTAL SCF ENERGY
----------------

Total Energy       :        -51.57542916575635 Eh           -1403.43878 eV

Components:
Nuclear Repulsion  :         88.81917938934879 Eh            2416.89274 eV
Electronic Energy  :       -140.39461201252894 Eh           -3820.33161 eV
One Electron Energy:       -257.07302440056725 Eh           -6995.31263 eV
Two Electron Energy:        116.67841238803831 Eh            3174.98101 eV

Virial components:
Potential Energy   :        -91.37213643512534 Eh           -2486.36224 eV
Kinetic Energy     :         39.79670726936899 Eh            1082.92346 eV
Virial Ratio       :          2.29597227269738

DFT components:
N(Alpha)           :       14.000001447536 electrons
N(Beta)            :       14.000001447536 electrons
N(Total)           :       28.000002895072 electrons
E(X)               :       -6.897072857163 Eh       
E(C)               :       -1.093560606347 Eh       
E(XC)              :       -7.990633463510 Eh       

---------------
SCF CONVERGENCE
---------------

  Last Energy change         ...    3.3665e-09  Tolerance :   1.0000e-08
  Last MAX-Density change    ...    8.7360e-06  Tolerance :   1.0000e-07
  Last RMS-Density change    ...    5.6225e-07  Tolerance :   5.0000e-09
  Last DIIS Error            ...    3.0609e-03  Tolerance :   5.0000e-07
  Last Orbital Gradient      ...    2.4589e-06  Tolerance :   1.0000e-05
  Last Orbital Rotation      ...    6.5219e-06  Tolerance :   1.0000e-05


----------------
ORBITAL ENERGIES
----------------

  NO   OCC          E(Eh)            E(eV) 
   0   2.0000      -1.200578       -32.6694 
   1   2.0000      -1.166578       -31.7442 
   2   2.0000      -0.926085       -25.2000 
   3   2.0000      -0.794767       -21.6267 
   4   2.0000      -0.734079       -19.9753 
   5   2.0000      -0.646417       -17.5899 
   6   2.0000      -0.600705       -16.3460 
   7   2.0000      -0.574991       -15.6463 
   8   2.0000      -0.562234       -15.2992 
   9   2.0000      -0.550070       -14.9682 
  10   2.0000      -0.500586       -13.6216 
  11   2.0000      -0.488329       -13.2881 
  12   2.0000      -0.386927       -10.5288 
  13   2.0000      -0.361224        -9.8294 
  14   0.0000       0.004236         0.1153 
  15   0.0000       0.081024         2.2048 
  16   0.0000       0.104262         2.8371 
  17   0.0000       0.118958         3.2370 
  18   0.0000       0.132033         3.5928 
  19   0.0000       0.144566         3.9338 
  20   0.0000       0.231303         6.2941 
  21   0.0000       0.281000         7.6464 
  22   0.0000       0.369184        10.0460 
  23   0.0000       0.371066        10.0972 
  24   0.0000       0.380194        10.3456 
*Only the first 10 virtual orbitals were printed.

                    ********************************
                    * MULLIKEN POPULATION ANALYSIS *
                    ********************************

-----------------------
MULLIKEN ATOMIC CHARGES
-----------------------
   0 C :    0.164870
   1 C :   -0.090106
   2 C :    0.192897
   3 O :   -0.279669
   4 O :   -0.380522
   5 H :    0.036153
   6 H :    0.263645
   7 H :    0.052321
   8 H :    0.040410
Sum of atomic charges:   -0.0000000

--------------------------------
MULLIKEN REDUCED ORBITAL CHARGES
--------------------------------
  0 C s       :     1.120677  s :     1.120677
      pz      :     0.773044  p :     2.558813
      px      :     1.011898
      py      :     0.773871
      dz2     :     0.021263  d :     0.155640
      dxz     :     0.023386
      dyz     :     0.027424
      dx2y2   :     0.037432
      dxy     :     0.046136

  1 C s       :     0.971253  s :     0.971253
      pz      :     1.135252  p :     3.047373
      px      :     0.902459
      py      :     1.009662
      dz2     :     0.006022  d :     0.071479
      dxz     :     0.012441
      dyz     :     0.008829
      dx2y2   :     0.024693
      dxy     :     0.019495

  2 C s       :     1.125925  s :     1.125925
      pz      :     0.706088  p :     2.502120
      px      :     0.981783
      py      :     0.814248
      dz2     :     0.021052  d :     0.179058
      dxz     :     0.025504
      dyz     :     0.027192
      dx2y2   :     0.034729
      dxy     :     0.070581

  3 O s       :     1.670941  s :     1.670941
      pz      :     1.639824  p :     4.577706
      px      :     1.590033
      py      :     1.347848
      dz2     :     0.005021  d :     0.031022
      dxz     :     0.002204
      dyz     :     0.006919
      dx2y2   :     0.010322
      dxy     :     0.006556

  4 O s       :     1.771680  s :     1.771680
      pz      :     1.422118  p :     4.575408
      px      :     1.823283
      py      :     1.330008
      dz2     :     0.006229  d :     0.033434
      dxz     :     0.001350
      dyz     :     0.010376
      dx2y2   :     0.009597
      dxy     :     0.005880

  5 H s       :     0.911845  s :     0.911845
      pz      :     0.018886  p :     0.052003
      px      :     0.008800
      py      :     0.024317

  6 H s       :     0.616378  s :     0.616378
      pz      :     0.024574  p :     0.119977
      px      :     0.071983
      py      :     0.023421

  7 H s       :     0.903566  s :     0.903566
      pz      :     0.010398  p :     0.044113
      px      :     0.024330
      py      :     0.009384

  8 H s       :     0.917502  s :     0.917502
      pz      :     0.008433  p :     0.042088
      px      :     0.023735
      py      :     0.009920



                     *******************************
                     * LOEWDIN POPULATION ANALYSIS *
                     *******************************

----------------------
LOEWDIN ATOMIC CHARGES
----------------------
   0 C :    0.053044
   1 C :   -0.132080
   2 C :    0.028173
   3 O :   -0.040993
   4 O :   -0.139557
   5 H :    0.042826
   6 H :    0.054540
   7 H :    0.073171
   8 H :    0.060875

-------------------------------
LOEWDIN REDUCED ORBITAL CHARGES
-------------------------------
  0 C s       :     0.816942  s :     0.816942
      pz      :     0.768908  p :     2.683914
      px      :     1.077800
      py      :     0.837206
      dz2     :     0.058125  d :     0.446100
      dxz     :     0.059662
      dyz     :     0.081342
      dx2y2   :     0.113151
      dxy     :     0.133820

  1 C s       :     0.809141  s :     0.809141
      pz      :     1.036440  p :     3.073924
      px      :     1.001942
      py      :     1.035542
      dz2     :     0.021519  d :     0.249014
      dxz     :     0.037813
      dyz     :     0.028745
      dx2y2   :     0.095223
      dxy     :     0.065714

  2 C s       :     0.818001  s :     0.818001
      pz      :     0.717213  p :     2.648608
      px      :     1.038192
      py      :     0.893203
      dz2     :     0.055869  d :     0.505218
      dxz     :     0.065182
      dyz     :     0.085952
      dx2y2   :     0.111053
      dxy     :     0.187162

  3 O s       :     1.401310  s :     1.401310
      pz      :     1.579233  p :     4.564669
      px      :     1.585015
      py      :     1.400420
      dz2     :     0.010030  d :     0.075014
      dxz     :     0.004954
      dyz     :     0.016250
      dx2y2   :     0.022597
      dxy     :     0.021183

  4 O s       :     1.515027  s :     1.515027
      pz      :     1.406115  p :     4.550768
      px      :     1.697989
      py      :     1.446664
      dz2     :     0.009811  d :     0.073762
      dxz     :     0.004381
      dyz     :     0.020097
      dx2y2   :     0.019892
      dxy     :     0.019580

  5 H s       :     0.798693  s :     0.798693
      pz      :     0.058936  p :     0.158480
      px      :     0.032562
      py      :     0.066982

  6 H s       :     0.566781  s :     0.566781
      pz      :     0.069795  p :     0.378678
      px      :     0.250524
      py      :     0.058360

  7 H s       :     0.797997  s :     0.797997
      pz      :     0.030247  p :     0.128832
      px      :     0.066539
      py      :     0.032046

  8 H s       :     0.812352  s :     0.812352
      pz      :     0.025223  p :     0.126772
      px      :     0.068301
      py      :     0.033249



                      *****************************
                      * MAYER POPULATION ANALYSIS *
                      *****************************

  NA   - Mulliken gross atomic population
  ZA   - Total nuclear charge
  QA   - Mulliken gross atomic charge
  VA   - Mayer's total valence
  BVA  - Mayer's bonded valence
  FA   - Mayer's free valence

  ATOM       NA         ZA         QA         VA         BVA        FA
  0 C      3.8351     4.0000     0.1649     4.0438     4.0438    -0.0000
  1 C      4.0901     4.0000    -0.0901     3.9150     3.9150    -0.0000
  2 C      3.8071     4.0000     0.1929     4.0424     4.0424    -0.0000
  3 O      6.2797     6.0000    -0.2797     2.1777     2.1777     0.0000
  4 O      6.3805     6.0000    -0.3805     1.9789     1.9789    -0.0000
  5 H      0.9638     1.0000     0.0362     1.0461     1.0461     0.0000
  6 H      0.7364     1.0000     0.2636     1.0685     1.0685     0.0000
  7 H      0.9477     1.0000     0.0523     1.0409     1.0409    -0.0000
  8 H      0.9596     1.0000     0.0404     1.0339     1.0339    -0.0000

  Mayer bond orders larger than 0.100000
B(  0-C ,  1-C ) :   1.6138 B(  0-C ,  3-O ) :   1.2339 B(  0-C ,  7-H ) :   1.0181 
B(  1-C ,  2-C ) :   1.2250 B(  1-C ,  5-H ) :   0.9919 B(  2-C ,  4-O ) :   1.6946 
B(  2-C ,  8-H ) :   1.0104 B(  3-O ,  6-H ) :   0.8566 B(  4-O ,  6-H ) :   0.1690 


-------
TIMINGS
-------

Total SCF time: 0 days 0 hours 0 min 2 sec 

Total time                  ....       2.413 sec
Sum of individual times     ....       2.391 sec  ( 99.1%)

SCF preparation             ....       0.114 sec  (  4.7%)
Fock matrix formation       ....       2.126 sec  ( 88.1%)
  Startup                   ....       0.011 sec  (  0.5% of F)
  Split-RI-J                ....       0.115 sec  (  5.4% of F)
  Chain of spheres X        ....       1.763 sec  ( 82.9% of F)
  XC integration            ....       0.191 sec  (  9.0% of F)
    XC Preparation          ....       0.000 sec  (  0.0% of XC)
    Basis function eval.    ....       0.040 sec  ( 21.1% of XC)
    Density eval.           ....       0.016 sec  (  8.6% of XC)
    XC-Functional eval.     ....       0.022 sec  ( 11.5% of XC)
    XC-Potential eval.      ....       0.022 sec  ( 11.8% of XC)
Diagonalization             ....       0.000 sec  (  0.0%)
Density matrix formation    ....       0.018 sec  (  0.8%)
Total Energy calculation    ....       0.020 sec  (  0.8%)
Population analysis         ....       0.011 sec  (  0.5%)
[...]
129:   3048.78   0.000083    0.42  0.000009  (-0.002836  0.000679 -0.000115)
130:   3057.03   0.053116  268.43  0.005422  (-0.069926  0.022755 -0.003836)
131:   3065.83   0.013711   69.29  0.001396  (-0.035975  0.009927 -0.001678)
132:   3086.83   0.001714    8.66  0.000173  (-0.011777 -0.005795  0.000972)
133:   3093.42   0.001259    6.36  0.000127  ( 0.008252 -0.007567  0.001272)
134:   3104.48   0.000018    0.09  0.000002  (-0.000461  0.001252 -0.000209)
135:   3104.63   0.000021    0.10  0.000002  (-0.000785 -0.001188  0.000197)
136:   3110.01   0.000053    0.27  0.000005  ( 0.001699  0.001544 -0.000254)
137:   3111.31   0.000097    0.49  0.000010  (-0.001947  0.002400 -0.000399)
138:   3287.62   0.000120    0.61  0.000011  (-0.002327  0.002413 -0.000389)
139:   3511.54   0.000003    0.01  0.000000  ( 0.000512  0.000018 -0.000004)
140:   3511.73   0.000002    0.01  0.000000  ( 0.000419  0.000026 -0.000003)

* The epsilon (eps) is given for a Dirac delta lineshape.
** The dipole moment derivative (T) already includes vibrational overlap.

The first frequency considered to be a vibration is 6
The total number of vibrations considered is 135


--------------------------
THERMOCHEMISTRY AT 298.15K
--------------------------

Temperature         ...   298.15 K
Pressure            ...     1.00 atm
Total Mass          ...   368.38 AMU
Quasi RRHO          ...     True
Cut-Off Frequency   ...     1.00 cm^-1

Throughout the following assumptions are being made:
  (1) The electronic state is orbitally nondegenerate
  (2) There are no thermally accessible electronically excited states
  (3) Hindered rotations indicated by low frequency modes are not
      treated as such but are treated as vibrations and this may
      cause some error
  (4) All equations used are the standard statistical mechanics
      equations for an ideal gas
  (5) All vibrations are strictly harmonic

freq.       7.47  E(vib)   ...       0.58 
freq.      13.27  E(vib)   ...       0.57 
freq.      22.08  E(vib)   ...       0.56 
freq.      36.97  E(vib)   ...       0.54 
freq.      41.91  E(vib)   ...       0.53 
freq.      45.07  E(vib)   ...       0.53 
freq.      45.26  E(vib)   ...       0.53 
freq.      61.17  E(vib)   ...       0.51 
freq.      65.51  E(vib)   ...       0.50 
freq.      95.70  E(vib)   ...       0.47 
freq.     128.31  E(vib)   ...       0.43 
freq.     145.10  E(vib)   ...       0.41 
freq.     147.34  E(vib)   ...       0.41 
freq.     150.18  E(vib)   ...       0.40 
freq.     174.47  E(vib)   ...       0.38 
freq.     206.86  E(vib)   ...       0.35 
freq.     211.69  E(vib)   ...       0.34 
freq.     212.95  E(vib)   ...       0.34 
freq.     230.42  E(vib)   ...       0.32 
freq.     243.90  E(vib)   ...       0.31 
freq.     247.34  E(vib)   ...       0.31 
freq.     250.78  E(vib)   ...       0.30 
freq.     257.61  E(vib)   ...       0.30 
freq.     293.22  E(vib)   ...       0.27 
freq.     344.99  E(vib)   ...       0.23 
freq.     347.25  E(vib)   ...       0.23 
freq.     348.22  E(vib)   ...       0.23 
freq.     360.95  E(vib)   ...       0.22 
freq.     364.78  E(vib)   ...       0.22 
freq.     396.67  E(vib)   ...       0.20 
freq.     396.89  E(vib)   ...       0.20 
freq.     402.83  E(vib)   ...       0.19 
freq.     409.04  E(vib)   ...       0.19 
freq.     448.63  E(vib)   ...       0.17 
freq.     454.62  E(vib)   ...       0.16 
freq.     454.91  E(vib)   ...       0.16 
freq.     464.36  E(vib)   ...       0.16 
freq.     534.24  E(vib)   ...       0.13 
freq.     551.10  E(vib)   ...       0.12 
freq.     560.72  E(vib)   ...       0.11 
freq.     569.48  E(vib)   ...       0.11 
freq.     615.26  E(vib)   ...       0.10 
freq.     616.62  E(vib)   ...       0.09 
freq.     650.53  E(vib)   ...       0.08 
freq.     656.80  E(vib)   ...       0.08 
freq.     663.04  E(vib)   ...       0.08 
freq.     687.88  E(vib)   ...       0.07 
freq.     728.92  E(vib)   ...       0.06 
freq.     731.87  E(vib)   ...       0.06 
freq.     754.99  E(vib)   ...       0.06 
freq.     758.00  E(vib)   ...       0.06 
freq.     780.76  E(vib)   ...       0.05 
freq.     794.25  E(vib)   ...       0.05 
freq.     807.00  E(vib)   ...       0.05 
freq.     815.35  E(vib)   ...       0.05 
freq.     818.44  E(vib)   ...       0.05 
freq.     831.35  E(vib)   ...       0.04 
freq.     836.14  E(vib)   ...       0.04 
freq.     869.22  E(vib)   ...       0.04 
freq.     870.10  E(vib)   ...       0.04 
freq.     892.44  E(vib)   ...       0.03 
freq.     892.82  E(vib)   ...       0.03 
freq.     959.96  E(vib)   ...       0.03 
freq.     961.53  E(vib)   ...       0.03 
freq.     989.50  E(vib)   ...       0.02 
freq.     998.69  E(vib)   ...       0.02 
freq.    1005.96  E(vib)   ...       0.02 
freq.    1010.36  E(vib)   ...       0.02 
freq.    1027.28  E(vib)   ...       0.02 
freq.    1051.40  E(vib)   ...       0.02 
freq.    1051.86  E(vib)   ...       0.02 
freq.    1103.44  E(vib)   ...       0.02 
freq.    1104.08  E(vib)   ...       0.02 
freq.    1118.45  E(vib)   ...       0.01 
freq.    1118.55  E(vib)   ...       0.01 
freq.    1151.02  E(vib)   ...       0.01 
freq.    1159.66  E(vib)   ...       0.01 
freq.    1159.80  E(vib)   ...       0.01 
freq.    1163.04  E(vib)   ...       0.01 
freq.    1163.37  E(vib)   ...       0.01 
freq.    1183.46  E(vib)   ...       0.01 
freq.    1189.14  E(vib)   ...       0.01 
freq.    1197.42  E(vib)   ...       0.01 
freq.    1209.37  E(vib)   ...       0.01 
freq.    1222.93  E(vib)   ...       0.01 
freq.    1260.29  E(vib)   ...       0.01 
freq.    1278.04  E(vib)   ...       0.01 
freq.    1279.04  E(vib)   ...       0.01 
freq.    1295.53  E(vib)   ...       0.01 
freq.    1310.68  E(vib)   ...       0.01 
freq.    1320.11  E(vib)   ...       0.01 
freq.    1330.30  E(vib)   ...       0.01 
freq.    1348.74  E(vib)   ...       0.01 
freq.    1349.15  E(vib)   ...       0.01 
freq.    1364.64  E(vib)   ...       0.01 
freq.    1398.14  E(vib)   ...       0.00 
freq.    1399.55  E(vib)   ...       0.00 
freq.    1408.27  E(vib)   ...       0.00 
freq.    1411.42  E(vib)   ...       0.00 
freq.    1419.84  E(vib)   ...       0.00 
freq.    1467.33  E(vib)   ...       0.00 
freq.    1467.43  E(vib)   ...       0.00 
freq.    1477.03  E(vib)   ...       0.00 
freq.    1477.16  E(vib)   ...       0.00 
freq.    1503.50  E(vib)   ...       0.00 
freq.    1505.18  E(vib)   ...       0.00 
freq.    1511.05  E(vib)   ...       0.00 
freq.    1563.21  E(vib)   ...       0.00 
freq.    1565.15  E(vib)   ...       0.00 
freq.    1580.11  E(vib)   ...       0.00 
freq.    1582.31  E(vib)   ...       0.00 
freq.    1622.98  E(vib)   ...       0.00 
freq.    1627.75  E(vib)   ...       0.00 
freq.    1686.33  E(vib)   ...       0.00 
freq.    1698.83  E(vib)   ...       0.00 
freq.    2966.95  E(vib)   ...       0.00 
freq.    2967.25  E(vib)   ...       0.00 
freq.    2977.85  E(vib)   ...       0.00 
freq.    2978.11  E(vib)   ...       0.00 
freq.    3016.36  E(vib)   ...       0.00 
freq.    3016.53  E(vib)   ...       0.00 
freq.    3045.39  E(vib)   ...       0.00 
freq.    3048.32  E(vib)   ...       0.00 
freq.    3048.78  E(vib)   ...       0.00 
freq.    3057.03  E(vib)   ...       0.00 
freq.    3065.83  E(vib)   ...       0.00 
freq.    3086.83  E(vib)   ...       0.00 
freq.    3093.42  E(vib)   ...       0.00 
freq.    3104.48  E(vib)   ...       0.00 
freq.    3104.63  E(vib)   ...       0.00 
freq.    3110.01  E(vib)   ...       0.00 
freq.    3111.31  E(vib)   ...       0.00 
freq.    3287.62  E(vib)   ...       0.00 
freq.    3511.54  E(vib)   ...       0.00 
freq.    3511.73  E(vib)   ...       0.00 

------------
INNER ENERGY
------------

The inner energy is: U= E(el) + E(ZPE) + E(vib) + E(rot) + E(trans)
    E(el)   - is the total energy from the electronic structure calculation
              = E(kin-el) + E(nuc-el) + E(el-el) + E(nuc-nuc)
    E(ZPE)  - the the zero temperature vibrational energy from the frequency calculation
    E(vib)  - the the finite temperature correction to E(ZPE) due to population
              of excited vibrational states
    E(rot)  - is the rotational thermal energy
    E(trans)- is the translational thermal energy

Summary of contributions to the inner energy U:
Electronic energy                ...   -114.54114182 Eh
Zero point energy                ...      0.35934771 Eh     225.49 kcal/mol
Thermal vibrational correction   ...      0.02382271 Eh      14.95 kcal/mol
Thermal rotational correction    ...      0.00141627 Eh       0.89 kcal/mol
Thermal translational correction ...      0.00141627 Eh       0.89 kcal/mol
-----------------------------------------------------------------------
Total thermal energy                   -114.15513885 Eh


Summary of corrections to the electronic energy:
(perhaps to be used in another calculation)
Total thermal correction                  0.02665525 Eh      16.73 kcal/mol
Non-thermal (ZPE) correction              0.35934771 Eh     225.49 kcal/mol
-----------------------------------------------------------------------
Total correction                          0.38600296 Eh     242.22 kcal/mol


--------
ENTHALPY
--------

The enthalpy is H = U + kB*T
                kB is Boltzmann's constant
Total thermal energy              ...   -114.15513885 Eh 
Thermal Enthalpy correction       ...      0.00094421 Eh       0.59 kcal/mol
-----------------------------------------------------------------------
Total Enthalpy                    ...   -114.15419464 Eh


WARNING (ORCA/SYM): The number of Z matrix atoms does not agree with
the number of centers in the basis set. The point group will therefore
be determined without considering basis set information.


Note: Only C1 symmetry has been detected, increase convergence thresholds 
      if your molecule has a higher symmetry. Symmetry factor of 1.0 is   
      used for the rotational entropy correction. 
 

Note: Rotational entropy computed according to Herzberg 
Infrared and Raman Spectra, Chapter V,1, Van Nostrand Reinhold, 1945 
Point Group:  C1, Symmetry Number:   1  
Rotational constants in cm-1:     0.031986     0.001164     0.001124 

Vibrational entropy computed according to the QRRHO of S. Grimme
Chem.Eur.J. 2012 18 9955 using a reference frequency of 100.0 cm-1


-------
ENTROPY
-------

The entropy contributions are T*S = T*(S(el)+S(vib)+S(rot)+S(trans))
     S(el)   - electronic entropy
     S(vib)  - vibrational entropy
     S(rot)  - rotational entropy
     S(trans)- translational entropy
The entropies will be listed as multiplied by the temperature to get
units of energy

Electronic entropy                ...      0.00000000 Eh      0.00 kcal/mol
Vibrational entropy               ...      0.04353683 Eh     27.32 kcal/mol
Rotational entropy                ...      0.01753126 Eh     11.00 kcal/mol
Translational entropy             ...      0.02071800 Eh     13.00 kcal/mol
-----------------------------------------------------------------------
Final entropy term                ...      0.08178609 Eh     51.32 kcal/mol

In case the symmetry of your molecule has not been determined correctly
or in case you have a reason to use a different symmetry number we print 
out the resulting rotational entropy values for sn=1,12:

 non-linear molecules -----------------------------------
|  sn= 1 | S(rot)=       0.01753126 Eh     11.00 kcal/mol|
|  sn= 2 | S(rot)=       0.01687680 Eh     10.59 kcal/mol|
|  sn= 3 | S(rot)=       0.01649397 Eh     10.35 kcal/mol|
|  sn= 4 | S(rot)=       0.01622234 Eh     10.18 kcal/mol|
|  sn= 5 | S(rot)=       0.01601165 Eh     10.05 kcal/mol|
|  sn= 6 | S(rot)=       0.01583951 Eh      9.94 kcal/mol|
|  sn= 7 | S(rot)=       0.01569396 Eh      9.85 kcal/mol|
|  sn= 8 | S(rot)=       0.01556789 Eh      9.77 kcal/mol|
|  sn= 9 | S(rot)=       0.01545668 Eh      9.70 kcal/mol|
|  sn=10 | S(rot)=       0.01535720 Eh      9.64 kcal/mol|
|  sn=11 | S(rot)=       0.01526721 Eh      9.58 kcal/mol|
|  sn=12 | S(rot)=       0.01518505 Eh      9.53 kcal/mol|
 linear molecules ---------------------------------------
|  Dinfh | S(rot)=       0.01173778 Eh      7.37 kcal/mol|
|  Cinfv | S(rot)=       0.01239224 Eh      7.78 kcal/mol|
 --------------------------------------------------------


-------------------
GIBBS FREE ENERGY
-------------------

The Gibbs free energy is G = H - T*S

Total enthalpy                    ...   -114.15419464 Eh 
Total entropy correction          ...     -0.08178609 Eh    -51.32 kcal/mol
-----------------------------------------------------------------------
Final Gibbs free energy         ...   -114.23598073 Eh

For completeness - the Gibbs free energy minus the electronic energy
G-E(el)                           ...      0.30516108 Eh    191.49 kcal/mol



--------------------------------
SUGGESTED CITATIONS FOR THIS RUN
--------------------------------

Below you find a list of papers that are relevant to this ORCA run
We neither can nor want to force you to cite these papers, but we appreciate if you do
You receive ORCA, which is the product of decades of hard work by many enthusiastic individuals, for free
The only thing we kindly ask in return is that you cite our papers,
We deeply appreciate it, if you show your appreciation for ORCA by not just citing the generic ORCA reference.

Please note that relegating all ORCA citations to the supporting information does *not* help us.
SI sections are not indexed - citations you put there will not count into any citation statistics
But we need these citations in order to attract the funding resources that allow us to do what we are doing

Therefore, if you are a happy ORCA user, please consider citing a few of the papers listed below in the main body of your paper

In addition to the list printed below, the program has created the file enol.bibtex that contains the list in bibtex format
You can import this file easily into all common literature databanks and citation aid programs


List of essential papers. We consider these as the minimum necessary citations

  1. Bannwarth,C.; Ehlert,S.; Grimme,S.
     GFN2-xTB—An Accurate and Broadly Parametrized Self-Consistent Tight-Binding Quantum Chemical Method with Multipole Electrostatics and Density-Dependent Dispersion Contributions
     J. Chem. Theory Comput., 2019 15(3)1652-1671
     doi.org/10.1021/acs.jctc.8b01176
  2. Neese,F.
     Software update: the ORCA program system, version 5.0
     WIRES Comput. Molec. Sci., 2022 12(1)e1606
     doi.org/10.1002/wcms.1606
  3. Mueller,M.; Hansen,A.; Grimme,S.
     wB97X-3c: A composite range-separated hybrid DFT method with a molecule-optimized polarized valence double-zeta basis set
     J. Chem. Phys., 2023 158 014103
     doi.org/10.1063/5.0133026

List of papers to cite with high priority. The work reported in these papers was absolutely
necessary for this run to complete.
Our perspective: the developers of density functionals and basis sets usually get cited in chemistry papers
Good! But without the algorithms to do something with them, the functionals or basis sets would not do anything.
Hence, in our opinion, the algorithm design and method developments papers are equally worthy of getting cited

  1. Neese,F.
     An improvement of the resolution of the identity approximation for the formation of the Coulomb matrix
     J. Comp. Chem., 2003 24(14)1740-1747
     doi.org/10.1002/jcc.10318
  2. Neese,F.; Wennmohs,F.; Hansen,A.; Becker,U.
     Efficient, approximate and parallel Hartree-Fock and hybrid DFT calculations. A 'chain-of-spheres' algorithm for the Hartree-Fock exchange
     Chem. Phys., 2009 356(1-3)98-109
     doi.org/10.1016/j.chemphys.2008.10.036
  3. Bykov,D.; Petrenko,T.; Izsak,R.; Kossmann,S.; Becker,U.; Valeev,E.; Neese,F.
     Efficient implementation of the analytic second derivatives of Hartree-Fock and hybrid DFT energies: a detailed analysis of different approximations
     Molec. Phys., 2015 113 1961-1977
     doi.org/10.1080/00268976.2015.1025114
  4. Bannwarth,C.; Caldeweyher,E.; Ehlert,S.; Hansen,A.; Pracht,P.; Seibert,J.; Spicher,S.; Grimme,S.
     Extended tight-binding quantum chemistry methods
     WIRES Comput. Molec. Sci., 2020 11(2)e1493
     doi.org/10.1002/wcms.1493
  5. Helmich-Paris,B.; de Souza,B.; Neese,F.; Izsák,R.
     An improved chain of spheres for exchange algorithm
     J. Chem. Phys., 2021 155 104109
     doi.org/doi: 10.1063/5.0058766.
  6. Neese,F.
     The SHARK Integral Generation and Digestion System
     J. Comp. Chem., 2022  1-16
     doi.org/10.1002/jcc.26942
  7. Caldeweyher,E.; Bannwarth,C.; Grimme,S.
     Extension of the D3 dispersion coefficient model
     J. Chem. Phys., 2017 147 034112
     doi.org/10.1063/1.4993215
  8. Caldeweyher,E.; Ehlert,S.; Hansen,A.; Neugebauer,H.; Spicher,S.; Bannwarth,C.; Grimme,S.
     A generally applicable atomic-charge dependent London dispersion correction
     J. Chem. Phys., 2019 150 154122
     doi.org/10.1063/1.5090222
  9. Caldeweyher,E.; Mewes,J.; Ehlert,S.; Grimme,S.
     Extension and evaluation of the D4 London-dispersion model for periodic systems
     Phys. Chem. Chem. Phys., 2020 22(16)8499-8512
     doi.org/10.1039/D0CP00502A
 10. Wittmann,L.; Gordiy,I.; Friede,M.; Helmich-Paris,B.; Grimme,S.; Hansen,A.; Bursch,M.
     Extension of the D3 and D4 London Dispersion Corrections to the full Actinides Series
     Phys. Chem. Chem. Phys., 2024 26(32)21379-21394
     doi.org/https://doi.org/10.1039/D4CP01514B 

List of suggested additional citations. These are papers that are important in the 'surrounding' of 
of this run, or papers that preceded the highly important papers. If you like your results we are grateful for a citation.

  1. Izsak,R.; Neese,F.
     An overlap fitted chain of spheres exchange method
     J. Chem. Phys., 2011 135 144105
     doi.org/10.1063/1.3646921
  2. Izsak,R.; Hansen,A.; Neese,F.
     The resolution of identity and chain of spheres approximations for the LPNO-CCSD singles Fock term
     Molec. Phys., 2012 110 2413-2417
     doi.org/10.1080/00268976.2012.687466
  3. Neese,F.
     The ORCA program system
     WIRES Comput. Molec. Sci., 2012 2(1)73-78
     doi.org/10.1002/wcms.81
  4. Izsak,R.; Neese,F.; Klopper,W.
     Robust fitting techniques in the chain of spheres approximation to the Fock exchange: The role of the complementary space
     J. Chem. Phys., 2013 139 
     doi.org/10.1063/1.4819264
  5. Neese,F.
     Software update: the ORCA program system, version 4.0
     WIRES Comput. Molec. Sci., 2018 8(1)1-6
     doi.org/10.1002/wcms.1327
  6. Neese,F.; Wennmohs,F.; Becker,U.; Riplinger,C.
     The ORCA quantum chemistry program package
     J. Chem. Phys., 2020 152 Art. No. L224108
     doi.org/10.1063/5.0004608

List of optional additional citations

  1. Neese,F.
     Approximate second-order SCF convergence for spin unrestricted wavefunctions
     Chem. Phys. Lett., 2000 325(1-3)93-98
     doi.org/10.1016/s0009-2614(00)00662-x

Timings for individual modules:

Sum of individual times          ...      434.984 sec (=   7.250 min)
Startup calculation              ...       11.966 sec (=   0.199 min)   2.8 %
SCF iterations                   ...       56.884 sec (=   0.948 min)  13.1 %
Property calculations            ...        0.274 sec (=   0.005 min)   0.1 %
SCF Gradient evaluation          ...       24.753 sec (=   0.413 min)   5.7 %
Geometry relaxation              ...        0.295 sec (=   0.005 min)   0.1 %
Numerical frequency calculation  ...      333.306 sec (=   5.555 min)  76.6 %
XTB module                       ...        3.763 sec (=   0.063 min)   0.9 %
ONIOM_Small energy and gradient  ...        1.468 sec (=   0.024 min)   0.3 %
ONIOM_Large energy and gradient  ...        2.276 sec (=   0.038 min)   0.5 %
                             ****ORCA TERMINATED NORMALLY****
TOTAL RUN TIME: 0 days 0 hours 7 minutes 14 seconds 717 msec
