
                                 *****************
                                 * O   R   C   A *
                                 *****************

                                            #,                                       
                                            ###                                      
                                            ####                                     
                                            #####                                    
                                            ######                                   
                                           ########,                                 
                                     ,,################,,,,,                         
                               ,,#################################,,                 
                          ,,##########################################,,             
                       ,#########################################, ''#####,          
                    ,#############################################,,   '####,        
                  ,##################################################,,,,####,       
                ,###########''''           ''''###############################       
              ,#####''   ,,,,##########,,,,          '''####'''          '####       
            ,##' ,,,,###########################,,,                        '##       
           ' ,,###''''                  '''############,,,                           
         ,,##''                                '''############,,,,        ,,,,,,###''
      ,#''                                            '''#######################'''  
     '                                                          ''''####''''         
             ,#######,   #######,   ,#######,      ##                                
            ,#'     '#,  ##    ##  ,#'     '#,    #''#        ,####,   ,####,        
            ##       ##  ##   ,#'  ##            #'  '#       #'       #'  '#        
            ##       ##  #######   ##           ,######,      #####,   #    #        
            '#,     ,#'  ##    ##  '#,     ,#' ,#      #,     #,   #   #,  ,#        
             '#######'   ##     ##  '#######'  #'      '#     '####' # '####'        



                #########################################################
                #                        -***-                          #
                #          Department of theory and spectroscopy        #
                #                                                       #
                #                      Frank Neese                      #
                #                                                       #
                #     Directorship, Architecture, Infrastructure        #
                #                    SHARK, DRIVERS                     #
                #        Core code/Algorithms in most modules           #
                #                                                       #
                #        Max Planck Institute fuer Kohlenforschung      #
                #                Kaiser Wilhelm Platz 1                 #
                #                 D-45470 Muelheim/Ruhr                 #
                #                      Germany                          #
                #                                                       #
                #                  All rights reserved                  #
                #                        -***-                          #
                #########################################################


                         Program Version 6.0.0  -   RELEASE  -


 With contributions from (in alphabetic order):
   Daniel Aravena         : Magnetic Suceptibility
   Michael Atanasov       : Ab Initio Ligand Field Theory (pilot matlab implementation)
   Alexander A. Auer      : GIAO ZORA, VPT2 properties, NMR spectrum
   Ute Becker             : All parallelization in ORCA, NUMFREQ, NUMCALC
   Giovanni Bistoni       : ED, misc. LED, open-shell LED, HFLD
   Martin Brehm           : Molecular dynamics
   Dmytro Bykov           : pre 5.0 version of the SCF Hessian
   Marcos Casanova-Páez   : Triplet and SCS-CIS(D). UHF-(DLPNO)-IP/EA/STEOM-CCSD. UHF-CVS-IP/STEOM-CCSD
   Vijay G. Chilkuri      : MRCI spin determinant printing, contributions to CSF-ICE
   Pauline Colinet        : FMM embedding
   Dipayan Datta          : RHF DLPNO-CCSD density
   Achintya Kumar Dutta   : EOM-CC, STEOM-CC
   Nicolas Foglia         : Exact transition moments, OPA infrastructure, MCD improvements
   Dmitry Ganyushin       : Spin-Orbit,Spin-Spin,Magnetic field MRCI
   Miquel Garcia          : C-PCM and meta-GGA Hessian, CCSD/C-PCM, Gaussian charge scheme
   Tiago L. C. Gouveia    : GS-ROHF, GS-ROCIS
   Yang Guo               : DLPNO-NEVPT2, F12-NEVPT2, CIM, IAO-localization
   Andreas Hansen         : Spin unrestricted coupled pair/coupled cluster methods
   Ingolf Harden          : AUTO-CI MPn and infrastructure 
   Benjamin Helmich-Paris : MC-RPA, TRAH-(SCF,CASSCF), AVAS, COSX integrals, SCF dyn. polar.
   Lee Huntington         : MR-EOM, pCC
   Robert Izsak           : Overlap fitted RIJCOSX, COSX-SCS-MP3, EOM
   Riya Kayal             : Wick's Theorem for AUTO-CI, AUTO-CI UHF-CCSDT
   Emily Kempfer          : AUTO-CI, RHF CISDT and CCSDT
   Christian Kollmar      : KDIIS, OOCD, Brueckner-CCSD(T), CCSD density, CASPT2, CASPT2-K, improved NEVPT2
   Axel Koslowski         : Symmetry handling
   Simone Kossmann        : Meta GGA functionals, TD-DFT gradient, OOMP2, (MP2 Hessian; deprecated post 5.0)
   Lucas Lang             : DCDCAS
   Marvin Lechner         : AUTO-CI (C++ implementation), FIC-MRCC
   Spencer Leger          : CASSCF response
   Dagmar Lenk            : GEPOL surface, SMD, ORCA-2-JSON
   Dimitrios Liakos       : Extrapolation schemes; Compound Job, initial MDCI parallelization
   Dimitrios Manganas     : Further ROCIS development; embedding schemes. LFT, Crystal Embedding
   Dimitrios Pantazis     : SARC Basis sets
   Anastasios Papadopoulos: AUTO-CI, single reference methods and gradients
   Taras Petrenko         : pre 6.0 DFT Hessian and TD-DFT gradient, (ASA, deprecated), ECA, 1-Electron XAS/XES, NRVS
   Peter Pinski           : DLPNO-MP2, DLPNO-MP2 Gradient
   Christoph Reimann      : Effective Core Potentials
   Marius Retegan         : Local ZFS, SOC
   Christoph Riplinger    : Optimizer, TS searches, QM/MM, DLPNO-CCSD(T), (RO)-DLPNO pert. Triples
   Michael Roemelt        : Original ROCIS implementation
   Masaaki Saitow         : Open-shell DLPNO-CCSD energy and density
   Barbara Sandhoefer     : DKH picture change effects
   Kantharuban Sivalingam : CASSCF convergence/infrastructure, NEVPT2 and variants, FIC-MRCI
   Bernardo de Souza      : ESD, SOC TD-DFT
   Georgi Stoychev        : AutoAux, RI-MP2 NMR, DLPNO-MP2 response, X2C
   Van Anh Tran           : RI-MP2 g-tensors
   Willem Van den Heuvel  : Paramagnetic NMR
   Zikuan Wang            : NOTCH, Electric field optimization 
   Frank Wennmohs         : Technical directorship and infrastructure
   Hang Xu                : AUTO-CI-Response properties 


 We gratefully acknowledge several colleagues who have allowed us to
 interface, adapt or use parts of their codes:
   Stefan Grimme, W. Hujo, H. Kruse, P. Pracht,  : VdW corrections, initial TS optimization,
                  C. Bannwarth, S. Ehlert,         DFT functionals, gCP, sTDA/sTD-DF
                  L. Wittmann, M. Mueller
   Ed Valeev, F. Pavosevic, A. Kumar             : LibInt (2-el integral package), F12 methods
   Garnet Chan, S. Sharma, J. Yang, R. Olivares  : DMRG
   Ulf Ekstrom                                   : XCFun DFT Library
   Mihaly Kallay                                 : mrcc  (arbitrary order and MRCC methods)
   Frank Weinhold                                : gennbo (NPA and NBO analysis)
   Simon Mueller                                 : openCOSMO-RS
   Christopher J. Cramer and Donald G. Truhlar   : smd solvation model
   Lars Goerigk                                  : TD-DFT with DH, B97 family of functionals
   V. Asgeirsson, H. Jonsson                     : NEB implementation
   FAccTs GmbH                                   : IRC, NEB, NEB-TS, DLPNO-Multilevel, CI-OPT
                                                   MM, QMMM, 2- and 3-layer-ONIOM, Crystal-QMMM,
                                                   LR-CPCM, SF, NACMEs, symmetry and pop. for TD-DFT,
                                                   nearIR, NL-DFT gradient (VV10), updates on ESD,
                                                   ML-optimized integration grids, MBIS, APM,
                                                   GOAT, DOCKER, SOLVATOR, interface openCOSMO-RS
   S Lehtola, MJT Oliveira, MAL Marques          : LibXC Library
   Liviu Ungur et al                             : ANISO software


 Your calculation uses the libint2 library for the computation of 2-el integrals
 For citations please refer to: http://libint.valeyev.net

 Your ORCA version has been built with support for libXC version: 6.2.2
 For citations please refer to: https://libxc.gitlab.io

 This ORCA versions uses:
   CBLAS   interface :  Fast vector & matrix operations
   LAPACKE interface :  Fast linear algebra routines
   SCALAPACK package :  Parallel linear algebra routines
   Shared memory     :  Shared parallel matrices
   BLAS/LAPACK       :  OpenBLAS 0.3.27  USE64BITINT DYNAMIC_ARCH NO_AFFINITY Zen SINGLE_THREADED
        Core in use  :  Zen
   Copyright (c) 2011-2014, The OpenBLAS Project


NOTE: MaxCore=1000 MB was set to SCF,MP2,MDCI,CIPSI,MRCI and CIS
      => If you want to overwrite this, your respective input block should be placed after the MaxCore statement
Your calculation utilizes the atom-pairwise dispersion correction
with the Becke-Johnson damping scheme (D3BJ)


Your calculation employs the composite approach B97-3c by Grimme and coworkers.
For the correct reference, please check the publication list of the Grimme group:
http://www.thch.uni-bonn.de/tc/index.php?section=publikationen&subsection=grimme#2017
   

XCFun DFT library Copyright 2009-2010 Ulf Ekstrom and contributors.
See http://admol.org/xcfun for more information.
This is free software; see the source code for copying conditions.
There is ABSOLUTELY NO WARRANTY; not even for MERCHANTABILITY or FITNESS FOR A PARTICULAR PURPOSE.
For details see the documentation.
Scientific users of this library should cite U. Ekstrom, L. Visscher, R. Bast, A. J. Thorvaldsen and K. Ruud;
J.Chem.Theor.Comp. 2010, DOI: 10.1021/ct100117s
XCFun Version 0.99 

================================================================================

----- Orbital basis set information -----
Your calculation utilizes the basis: def2-mTZVP
----- AuxJ basis set information -----
Your calculation utilizes the basis: def2-mTZVP/J
================================================================================
                                        WARNINGS
                       Please study these warnings very carefully!
================================================================================


WARNING: Geometry Optimization
  ===> : Switching off AutoStart
         For restart on a previous wavefunction, please use MOREAD

================================================================================
                                       INPUT FILE
================================================================================
NAME = ethene_HF_TS.inp
|  1> ! B97-3c optTS freq tightSCF miniprint nopop
|  2> %maxcore     1000
|  3> %pal nprocs  24 end
|  4> %geom Calc_Hess true end
|  5> * xyz   0   1
|  6> C      0.44376046   -0.75666898    0.00000000
|  7> H      0.50077995   -1.34929565    0.88676297
|  8> H      0.50077995   -1.34929565   -0.88676297
|  9> C      0.89702702    0.52048220    0.00000000
| 10> H      1.25585866    0.96553542   -0.90561945
| 11> H      1.25585866    0.96553542    0.90561945
| 12> F     -1.28169814    0.12454719    0.00000000
| 13> H     -0.21204609    1.13096924    0.00000000
| 14>  *
| 15> 
| 16>                          ****END OF INPUT****
================================================================================

                       *****************************
                       * Geometry Optimization Run *
                       *****************************

Geometry optimization settings:
Update method            Update   .... Bofill
Choice of coordinates    CoordSys .... (2022) Redundant Internals
Initial Hessian          InHess   .... Almloef's Model
Max. no of cycles        MaxIter  .... 50

Convergence Tolerances:
Energy Change            TolE     ....  5.0000e-06 Eh
Max. Gradient            TolMAXG  ....  3.0000e-04 Eh/bohr
RMS Gradient             TolRMSG  ....  1.0000e-04 Eh/bohr
Max. Displacement        TolMAXD  ....  4.0000e-03 bohr
RMS Displacement         TolRMSD  ....  2.0000e-03 bohr
Strict Convergence                .... False

------------------------------------------------------------------------------
                        ORCA OPTIMIZATION COORDINATE SETUP
------------------------------------------------------------------------------

The optimization will be done in redundant internal coordinates (2022)
Making redundant internal coordinates   ...  (2022 redundants) done
Following TS mode number                ...     0
Evaluating the initial hessian          ...  (Is done on the fly) done
Evaluating the coordinates              ...  done
Calculating the B-matrix                .... done
Calculating the G-matrix                .... done
Diagonalizing the G-matrix              .... done
The first mode is                       ....   17
The number of degrees of freedom        ....   18

    -----------------------------------------------------------------
                    Redundant Internal Coordinates


    -----------------------------------------------------------------
         Definition                    Initial Value    d2E/dq (diagonal element)
    -----------------------------------------------------------------
      1. B(H   1,C   0)                  1.0681         0.000000   
      2. B(H   2,C   0)                  1.0681         0.000000   
      3. B(C   3,C   0)                  1.3552         0.000000   
      4. B(H   4,C   3)                  1.0710         0.000000   
      5. B(H   5,C   3)                  1.0710         0.000000   
      6. B(F   6,C   0)                  1.9375         0.000000   
      7. B(H   7,F   6)                  1.4687         0.000000   
      8. B(H   7,C   3)                  1.2660         0.000000   
      9. A(H   1,C   0,C   3)          120.3340         0.000000   
     10. A(H   1,C   0,H   2)          112.2460         0.000000   
     11. A(H   2,C   0,F   6)          107.4520         0.000000   
     12. A(H   1,C   0,F   6)          107.4520         0.000000   
     13. A(H   2,C   0,C   3)          120.3340         0.000000   
     14. A(C   3,C   0,F   6)           82.4860         0.000000   
     15. A(C   0,C   3,H   7)           99.2905         0.000000   
     16. A(H   4,C   3,H   5)          115.4738         0.000000   
     17. A(C   0,C   3,H   5)          120.2445         0.000000   
     18. A(H   5,C   3,H   7)           95.3438         0.000000   
     19. A(H   4,C   3,H   7)           95.3438         0.000000   
     20. A(C   0,C   3,H   4)          120.2445         0.000000   
     21. A(C   0,F   6,H   7)           70.3096         0.000000   
     22. A(C   3,H   7,F   6)          107.9140         0.000000   
     23. D(H   4,C   3,C   0,F   6)   -101.8071         0.000000   
     24. D(H   5,C   3,C   0,H   1)     -4.0539         0.000000   
     25. D(H   5,C   3,C   0,H   2)   -152.3319         0.000000   
     26. D(H   4,C   3,C   0,H   1)    152.3319         0.000000   
     27. D(H   5,C   3,C   0,F   6)    101.8071         0.000000   
     28. D(H   4,C   3,C   0,H   2)      4.0539         0.000000   
     29. D(H   7,F   6,C   0,H   1)    119.5068         0.000000   
     30. D(H   7,F   6,C   0,C   3)      0.0000         0.000000   
     31. D(H   7,F   6,C   0,H   2)   -119.5068         0.000000   
     32. D(C   3,H   7,F   6,C   0)      0.0000         0.000000   
     33. D(F   6,H   7,C   3,H   5)   -121.8647         0.000000   
     34. D(F   6,H   7,C   3,H   4)    121.8647         0.000000   
     35. D(F   6,H   7,C   3,C   0)      0.0000         0.000000   
    -----------------------------------------------------------------

Number of atoms                         .... 8
Number of degrees of freedom            .... 35


         *************************************************************
         *                GEOMETRY OPTIMIZATION CYCLE   1            *
         *************************************************************
---------------------------------
CARTESIAN COORDINATES (ANGSTROEM)
---------------------------------
  C      0.443760   -0.756669    0.000000
  H      0.500780   -1.349296    0.886763
  H      0.500780   -1.349296   -0.886763
  C      0.897027    0.520482    0.000000
  H      1.255859    0.965535   -0.905619
  H      1.255859    0.965535    0.905619
  F     -1.281698    0.124547    0.000000
  H     -0.212046    1.130969    0.000000

----------------------------
CARTESIAN COORDINATES (A.U.)
----------------------------
  NO LB      ZA    FRAG     MASS         X           Y           Z
   0 C     6.0000    0    12.011    0.838586   -1.429897    0.000000
   1 H     1.0000    0     1.008    0.946337   -2.549799    1.675739
   2 H     1.0000    0     1.008    0.946337   -2.549799   -1.675739
   3 C     6.0000    0    12.011    1.695135    0.983569    0.000000
   4 H     1.0000    0     1.008    2.373229    1.824598   -1.711373
   5 H     1.0000    0     1.008    2.373229    1.824598    1.711373
   6 F     9.0000    0    18.998   -2.422058    0.235360    0.000000
   7 H     1.0000    0     1.008   -0.400709    2.137222    0.000000



           ************************************************************
           *        Program running with 24 parallel MPI-processes    *
           *              working on a common directory               *
           ************************************************************
------------------------------------------------------------------------------
                   ___                                                        
                  /   \      - P O W E R E D   B Y -                         
                 /     \                                                     
                 |  |  |   _    _      __       _____    __    __             
                 |  |  |  | |  | |    /  \     |  _  \  |  |  /  |          
                  \  \/   | |  | |   /    \    | | | |  |  | /  /          
                 / \  \   | |__| |  /  /\  \   | |_| |  |  |/  /          
                |  |  |   |  __  | /  /__\  \  |    /   |      \           
                |  |  |   | |  | | |   __   |  |    \   |  |\   \          
                \     /   | |  | | |  |  |  |  | |\  \  |  | \   \       
                 \___/    |_|  |_| |__|  |__|  |_| \__\ |__|  \__/        
                                                                              
                      - O R C A' S   B I G   F R I E N D -                    
                                      &                                       
                       - I N T E G R A L  F E E D E R -                       
                                                                              
 v1 FN, 2020, v2 2021, v3 2022-2024                                           
------------------------------------------------------------------------------


----------------------
SHARK INTEGRAL PACKAGE
----------------------

Number of atoms                             ...      8
Number of basis functions                   ...     72
Number of shells                            ...     42
Maximum angular momentum                    ...      2
Integral batch strategy                     ... SHARK/LIBINT Hybrid
RI-J (if used) integral strategy            ... SPLIT-RIJ (Revised 2003 algorithm where possible)
Printlevel                                  ...      1
Contraction scheme used                     ... SEGMENTED contraction
Prescreening option                         ... SCHWARTZ
   Thresh                                   ... 2.500e-11
   Tcut                                     ... 2.500e-12
   Tpresel                                  ... 2.500e-12 
Coulomb Range Separation                    ... NOT USED
Exchange Range Separation                   ... NOT USED
Multipole approximations                    ... NOT USED
Finite Nucleus Model                        ... NOT USED
CABS basis                                  ... NOT available
Auxiliary Coulomb fitting basis             ... AVAILABLE
   # of basis functions in Aux-J            ...    125
   # of shells in Aux-J                     ...     57
   Maximum angular momentum in Aux-J        ...      2
Auxiliary J/K fitting basis                 ... NOT available
Auxiliary Correlation fitting basis         ... NOT available
Auxiliary 'external' fitting basis          ... NOT available

Checking pre-screening integrals            ... done (  0.0 sec) Dimension = 42
Check shell pair data                       ... done (  0.0 sec)
Shell pair information
Shell pair cut-off parameter TPreSel        ...   2.5e-12
Total number of shell pairs                 ...       903
Shell pairs after pre-screening             ...       890
Total number of primitive shell pairs       ...      3241
Primitive shell pairs kept                  ...      2595
          la=0 lb=0:    453 shell pairs
          la=1 lb=0:    269 shell pairs
          la=1 lb=1:     45 shell pairs
          la=2 lb=0:     90 shell pairs
          la=2 lb=1:     27 shell pairs
          la=2 lb=2:      6 shell pairs

Calculating one electron integrals          ... done (  0.0 sec)
Calculating RI/J V-Matrix + Cholesky decomp.... done (  0.0 sec)
Calculating Nuclear repulsion               ... done (  0.0 sec) ENN=     76.544406048748 Eh

Diagonalization of the overlap matrix:
Smallest eigenvalue                        ... 5.354e-04
Time for diagonalization                   ...    0.001 sec
Threshold for overlap eigenvalues          ... 1.000e-07
Number of eigenvalues below threshold      ... 0
Time for construction of square roots      ...    0.000 sec
Total time needed                          ...    0.002 sec

-------------------
DFT GRID GENERATION
-------------------

General Integration Accuracy     IntAcc      ... 4.388
Radial Grid Type                 RadialGrid  ... OptM3 with GC (2021)
Angular Grid (max. ang.)         AngularGrid ... 4 (Lebedev-302)
Angular grid pruning method      GridPruning ... 4 (adaptive)
Weight generation scheme         WeightScheme... mBecke (2022)
Basis function cutoff            BFCut       ... 1.0000e-11
Integration weight cutoff        WCut        ... 1.0000e-14
Partially contracted basis set               ... off
Rotationally invariant grid construction     ... off
Angular grids for H and He will be reduced by one unit

Total number of grid points                  ...    34538
Total number of batches                      ...      544
Average number of points per batch           ...       63
Average number of grid points per atom       ...     4317
Initializing property integral containers    ... done (  0.0 sec)

SHARK setup successfully completed in   0.2 seconds

Maximum memory used throughout the entire STARTUP-calculation: 9.1 MB


           ************************************************************
           *        Program running with 24 parallel MPI-processes    *
           *              working on a common directory               *
           ************************************************************
             **** ENERGY FILE WAS UPDATED (ethene_HF_TS.en.tmp) ****
Finished Guess after   0.1 sec
Maximum memory used throughout the entire GUESS-calculation: 4.4 MB


           ************************************************************
           *        Program running with 24 parallel MPI-processes    *
           *              working on a common directory               *
           ************************************************************
----------------------------------------D-I-I-S--------------------------------------------
Iteration    Energy (Eh)           Delta-E    RMSDP     MaxDP     DIISErr   Damp  Time(sec)
-------------------------------------------------------------------------------------------
               ***  Starting incremental Fock matrix formation  ***
    1    -178.0610782191728276     0.00e+00  1.47e-02  1.82e-01  4.93e-01  0.700   0.0
Warning: op=0 Small HOMO/LUMO gap (  -0.065) - skipping pre-diagonalization
         Will do a full diagonalization
    2    -178.3664462492859002    -3.05e-01  6.31e-03  9.11e-02  3.51e-01  0.700   0.0
    3    -178.5055997340568297    -1.39e-01  4.37e-03  5.97e-02  2.44e-01  0.700   0.0
                               ***Turning on AO-DIIS***
    4    -178.6104586643211292    -1.05e-01  3.17e-03  4.30e-02  1.69e-01  0.700   0.0
    5    -178.6826928220162358    -7.22e-02  2.30e-03  3.18e-02  1.19e-01  0.700   0.0
    6    -178.7326208532667806    -4.99e-02  1.85e-03  2.53e-02  8.34e-02  0.700   0.0
    7    -178.7685983734405681    -3.60e-02  4.24e-03  6.19e-02  5.88e-02  0.000   0.0
    8    -178.8512101265234833    -8.26e-02  6.33e-04  7.52e-03  2.59e-02  0.000   0.0
    9    -178.8521700438719790    -9.60e-04  1.51e-04  1.53e-03  3.59e-03  0.000   0.0
                              *** Initializing SOSCF ***
---------------------------------------S-O-S-C-F--------------------------------------
Iteration    Energy (Eh)           Delta-E    RMSDP     MaxDP     MaxGrad    Time(sec)
--------------------------------------------------------------------------------------
   10    -178.8521871832600709    -1.71e-05  4.97e-05  6.11e-04  9.52e-04     0.0
               *** Restarting incremental Fock matrix formation ***
   11    -178.8521896785562149    -2.50e-06  9.81e-05  1.38e-03  4.39e-04     0.0
   12    -178.8521815658406240     8.11e-06  6.00e-05  9.48e-04  1.59e-03     0.0
   13    -178.8521910044619858    -9.44e-06  1.46e-05  1.33e-04  4.05e-05     0.0
   14    -178.8521910139339184    -9.47e-09  6.21e-06  5.60e-05  3.54e-05     0.0
                 **** Energy Check signals convergence ****

               *****************************************************
               *                     SUCCESS                       *
               *           SCF CONVERGED AFTER  14 CYCLES          *
               *****************************************************

             **** ENERGY FILE WAS UPDATED (ethene_HF_TS.en.tmp) ****

----------------
TOTAL SCF ENERGY
----------------

Total Energy       :       -178.85219101393392 Eh           -4866.81554 eV

Components:
Nuclear Repulsion  :         76.54440604874803 Eh            2082.87918 eV
Electronic Energy  :       -255.39659706268196 Eh           -6949.69472 eV
One Electron Energy:       -397.04619906629279 Eh          -10804.17635 eV
Two Electron Energy:        141.64960200361082 Eh            3854.48163 eV

Virial components:
Potential Energy   :       -357.26904198315890 Eh           -9721.78488 eV
Kinetic Energy     :        178.41685096922498 Eh            4854.96934 eV
Virial Ratio       :          2.00244001641293

DFT components:
N(Alpha)           :       13.000011361418 electrons
N(Beta)            :       13.000011361418 electrons
N(Total)           :       26.000022722836 electrons
E(XC)              :      -22.994455840974 Eh       

---------------
SCF CONVERGENCE
---------------

  Last Energy change         ...    9.4719e-09  Tolerance :   1.0000e-08
  Last MAX-Density change    ...    5.6010e-05  Tolerance :   1.0000e-07
  Last RMS-Density change    ...    6.2143e-06  Tolerance :   5.0000e-09
  Last DIIS Error            ...    9.5183e-04  Tolerance :   5.0000e-07
  Last Orbital Gradient      ...    3.5393e-05  Tolerance :   1.0000e-05
  Last Orbital Rotation      ...    1.5020e-04  Tolerance :   1.0000e-05


----------------
ORBITAL ENERGIES
----------------

  NO   OCC          E(Eh)            E(eV) 
   0   2.0000     -24.151081      -657.1843 
   1   2.0000      -9.974234      -271.4127 
   2   2.0000      -9.889047      -269.0946 
   3   2.0000      -0.977162       -26.5899 
   4   2.0000      -0.740478       -20.1494 
   5   2.0000      -0.580897       -15.8070 
   6   2.0000      -0.458167       -12.4674 
   7   2.0000      -0.420202       -11.4343 
   8   2.0000      -0.383543       -10.4367 
   9   2.0000      -0.346207        -9.4208 
  10   2.0000      -0.323111        -8.7923 
  11   2.0000      -0.269723        -7.3395 
  12   2.0000      -0.213183        -5.8010 
  13   0.0000      -0.105952        -2.8831 
  14   0.0000       0.036141         0.9834 
  15   0.0000       0.060087         1.6351 
  16   0.0000       0.061077         1.6620 
  17   0.0000       0.093102         2.5334 
  18   0.0000       0.138604         3.7716 
  19   0.0000       0.162007         4.4084 
  20   0.0000       0.175000         4.7620 
  21   0.0000       0.191790         5.2189 
  22   0.0000       0.236259         6.4289 
  23   0.0000       0.239634         6.5208 
*Only the first 10 virtual orbitals were printed.
Total SCF time: 0 days 0 hours 0 min 0 sec 
Finished LeanSCF after   0.5 sec

Maximum memory used throughout the entire LEANSCF-calculation: 5.8 MB


           ************************************************************
           *        Program running with 24 parallel MPI-processes    *
           *              working on a common directory               *
           ************************************************************

------------------------------------------------------------------------------
                         ORCA PROPERTY INTEGRAL CALCULATIONS
------------------------------------------------------------------------------

GBWName                                   ... ethene_HF_TS.gbw
Number of atoms                           ...      8
Number of basis functions                 ...     72
Max core memory                           ...   1000 MB

Dipole integrals                          ... YES
Quadrupole integrals                      ...  NO
Linear momentum integrals                 ...  NO
Angular momentum integrals                ...  NO
Higher moments length integrals           ...  NO
Higher moments velocity integrals         ...  NO
Kinetic energy integrals                  ...  NO
GIAO right hand sides                     ...  NO
GIAO dipole derivative integrals          ...  NO
SOC integrals                             ...  NO
EPR diamagnetic integrals (GIAO)          ...  NO
EPR gauge integrals                       ...  NO
Field gradient integrals                  ...  NO (   0 nuclei)
Spin-dipole/Fermi contact integrals       ...  NO (   0 nuclei)
Contact density integrals                 ...  NO (   0 nuclei)
Nucleus-orbit integrals                   ...  NO (   0 nuclei)
Geometric perturbations                   ...  NO (   8 nuclei)

Choice of electric origin   ... Center of mass
Position of electric origin ... ( -0.1934, -0.0041,  0.0000) 
Choice of magnetic origin   ... GIAO
Position of magnetic origin ... (  0.0000,  0.0000,  0.0000) 

Calculating integrals                     ... Electric Dipole (Length)     done (  0.0 sec)

Property integrals calculated in   0.0 sec

Maximum memory used throughout the entire PROPINT-calculation: 4.6 MB


-------------------------------------------------------------------------------
                          DFT DISPERSION CORRECTION                            
                                                                               
                              DFTD3 V3.1  Rev 1                                
                          USING Becke-Johnson damping                          
-------------------------------------------------------------------------------
-------------------------   ----------------
Dispersion correction           -0.008782339
-------------------------   ----------------

------------------   -----------------
SRB correction            -0.016437273
------------------   -----------------

-------------------------   --------------------
FINAL SINGLE POINT ENERGY      -178.877410626048
-------------------------   --------------------



           ************************************************************
           *        Program running with 24 parallel MPI-processes    *
           *              working on a common directory               *
           ************************************************************
------------------------------------------------------------------------------
                         ORCA SCF GRADIENT CALCULATION
------------------------------------------------------------------------------

Nuc. rep. gradient        (SHARK) ... done (  0.0 sec)
HCore & Overlap gradient  (SHARK) ... done (  0.0 sec)
Split-RIJ-J gradient      (SHARK) ... done (  0.0 sec)
XC gradient                       ... done (  0.0 sec)
Dispersion correction             ... done (  0.0 sec)

-------------------
DISPERSION GRADIENT
-------------------

   1   C   :    0.000009028   -0.000160367    0.000000000
   2   H   :    0.000032577   -0.000249104    0.000120562
   3   H   :    0.000032577   -0.000249104   -0.000120562
   4   C   :    0.000018865    0.000142954    0.000000000
   5   H   :    0.000148033    0.000170157   -0.000111079
   6   H   :    0.000148033    0.000170157    0.000111079
   7   F   :   -0.000378405    0.000052437    0.000000000
   8   H   :   -0.000010707    0.000122870    0.000000000

Difference to translation invariance:
           :   -0.0000000000   -0.0000000000   -0.0000000000

Difference to rotation invariance:
           :   -0.0000000000    0.0000000000    0.0000000000

Norm of the Dispersion gradient    ...    0.0006996083
RMS gradient                       ...    0.0001428070
MAX gradient                       ...    0.0003784047
SRB correction                   ... done

------------------
CARTESIAN GRADIENT
------------------

   1   C   :    0.024564457    0.016741518    0.000000000
   2   H   :    0.010492852    0.002079342   -0.010970246
   3   H   :    0.010492852    0.002079342    0.010970246
   4   C   :   -0.010145820   -0.084541673    0.000000000
   5   H   :   -0.014210760    0.002984573    0.007407701
   6   H   :   -0.014210760    0.002984573   -0.007407701
   7   F   :    0.019273110    0.033561016   -0.000000000
   8   H   :   -0.026255931    0.024111309    0.000000000

Difference to translation invariance:
           :   -0.0000000000    0.0000000000    0.0000000000

Difference to rotation invariance:
           :    0.0000000008   -0.0000000009   -0.0000675179

Norm of the Cartesian gradient     ...    0.1091028937
RMS gradient                       ...    0.0222705349
MAX gradient                       ...    0.0845416731

-------
TIMINGS
-------

Total SCF gradient time     ....        0.119 sec

Densities                   ....       0.000 sec  (  0.2%)
One electron gradient       ....       0.005 sec  (  4.0%)
RI-J Coulomb gradient       ....       0.041 sec  ( 34.3%)
XC gradient                 ....       0.034 sec  ( 28.3%)

Maximum memory used throughout the entire SCFGRAD-calculation: 24.3 MB


           ************************************************************
           *        Program running with 24 parallel MPI-processes    *
           *              working on a common directory               *
           ************************************************************

------------------------------------------------------------------------------
                         ORCA PROPERTY INTEGRAL CALCULATIONS
------------------------------------------------------------------------------

GBWName                                   ... ethene_HF_TS.gbw
Number of atoms                           ...      8
Number of basis functions                 ...     72
Max core memory                           ...   1000 MB

Dipole integrals                          ...  NO
Quadrupole integrals                      ...  NO
Linear momentum integrals                 ...  NO
Angular momentum integrals                ...  NO
Higher moments length integrals           ...  NO
Higher moments velocity integrals         ...  NO
Kinetic energy integrals                  ...  NO
GIAO right hand sides                     ...  NO
GIAO dipole derivative integrals          ...  NO
SOC integrals                             ...  NO
EPR diamagnetic integrals (GIAO)          ...  NO
EPR gauge integrals                       ...  NO
Field gradient integrals                  ...  NO (   0 nuclei)
Spin-dipole/Fermi contact integrals       ...  NO (   0 nuclei)
Contact density integrals                 ...  NO (   0 nuclei)
Nucleus-orbit integrals                   ...  NO (   0 nuclei)
Geometric perturbations                   ... YES (   8 nuclei)

Choice of electric origin   ... Center of mass
Position of electric origin ... ( -0.1934, -0.0041,  0.0000) 
Choice of magnetic origin   ... GIAO
Position of magnetic origin ... (  0.0000,  0.0000,  0.0000) 

Calculating integrals                     ... Geometrical perturbation right hand sides

-----------------------
GEOMETRIC PERTURBATIONS (8 nuclei)
-----------------------

MaxCore                            ...   1000 MB
Number of batches                  ...      1

BATCH   0: Atoms    0 -    7 ( 24 perturbations)
   => H(core) and overlap derivative integrals     ... done (     0.0 sec)
   => Making and storing internal U-coefficients   ... done (     0.0 sec)
   => RI-J derivative integrals                    ... done (     0.1 sec)
   => RI-J response operators                      ... done (     0.0 sec)
   => XC derivative integrals                      ... done (     0.2 sec)
   => XC response operators                        ... done (     0.1 sec)
   => Completing and storing right hand sides      ... done (     0.0 sec)
   => Total time for right hand sides =   0.4 sec

  geometrical perturbations done (  0.4 sec)

Property integrals calculated in   0.4 sec

Maximum memory used throughout the entire PROPINT-calculation: 12.1 MB


           ************************************************************
           *        Program running with 24 parallel MPI-processes    *
           *              working on a common directory               *
           ************************************************************
------------------------------------------------------------------------------
                            ORCA SCF RESPONSE CALCULATION
------------------------------------------------------------------------------

GBWName                                 ... ethene_HF_TS.gbw
Number of atoms                         ...      8
Number of basis functions               ...     72
Max core memory                         ...   1000 MB

Electric field perturbation             ...  NO
Quadrupolar field perturbation          ...  NO
Magnetic field perturbation (no GIAO)   ...  NO
Magnetic field perturbation (with GIAO) ...  NO
Linear momentum (velocity) perturbation ...  NO
Spin-orbit coupling perturbation        ...  NO
Choice of electric origin               ... Center of mass
Position of electric origin             ...    -0.193371    -0.004102     0.000000
Choice of magnetic origin               ... GIAO
Position of magnetic origin             ...     0.000000     0.000000     0.000000
Nuclear geometric perturbations         ... YES (  24 perturbations)
Nucleus-orbit perturbations             ...  NO (   0 perturbations)
Spin-dipole/Fermi contact perturbations ...  NO (   0 perturbations)

Total number of real perturbations      ...     24
Total number of imaginary perturbations ...      0
Total number of triplet perturbations   ...      0
Total number of SOC perturbations       ...      0

Using XC Grid                  ... (ethene_HF_TS.grid_cpscf.tmp) 
Recalculating density on grid  ... (ethene_HF_TS.grho_cpscf0.tmp) done
Calculating the xc-kernel      ... (ethene_HF_TS.fxc_cpscf0.tmp) done

                                **********************
                                * REAL PERTURBATIONS *
                                **********************



-------------------
SHARK CP-SCF DRIVER
-------------------

Dimension of the orbital basis          ...     72
Dimension of the CPSCF-problem          ...    767
Number of operators                     ...      1
Max. number of iterations               ...    128
Convergence Tolerance                   ... 1.0e-04
Number of perturbations                 ...     24
Perturbation type                       ... REAL

----------------------------
POPLE LINEAR EQUATION SOLVER
----------------------------

  ITERATION   0:   ||err||_max =   6.1600e-01 (   0.0 sec   0/ 24 done)
  ITERATION   1:   ||err||_max =   7.0929e-02 (   0.0 sec   0/ 24 done)
  ITERATION   2:   ||err||_max =   1.7355e-02 (   0.0 sec   1/ 24 done)
  ITERATION   3:   ||err||_max =   4.5855e-03 (   0.0 sec   4/ 24 done)
  ITERATION   4:   ||err||_max =   1.0988e-03 (   0.0 sec   4/ 24 done)
  ITERATION   5:   ||err||_max =   2.6025e-04 (   0.0 sec  11/ 24 done)
  ITERATION   6:   ||err||_max =   4.5205e-05 (   0.0 sec  24/ 24 done)

CP-SCF equations solved in   0.3 sec
Response densities calculated in   0.0 sec

Maximum memory used throughout the entire SCFRESP-calculation: 5.6 MB


           ************************************************************
           *        Program running with 24 parallel MPI-processes    *
           *              working on a common directory               *
           ************************************************************

------------------------------------------------------------------------------
                              ORCA PROPERTY CALCULATIONS
------------------------------------------------------------------------------

GBWName                                 ... ethene_HF_TS.gbw
Number of atoms                         ...      8
Number of basis functions               ...     72
Max core memory                         ...   1000 MB

Electric properties:
Dipole moment                           ...  NO
Quadrupole moment                       ...  NO
Static polarizability (Dipole/Dipole)   ...  NO
Static polarizability (Dipole/Quad.)    ...  NO
Static polarizability (Quad./Quad.)     ...  NO
Static polarizability (Velocity)        ...  NO

Atomic electric properties:
Dipole moment                           ...  NO
Quadrupole moment                       ...  NO
Static polarizability                   ...  NO

Choice of electric origin               ... Center of mass
Position of electric origin             ...    -0.193371    -0.004102     0.000000

General magnetic properties:
Magnetizability                         ...  NO

EPR properties:
g-Tensor (aka g-matrix)                 ...  NO
Zero-Field splitting spin-orbit         ...  NO
Zero-field splitting spin-spin          ...  NO
Hyperfine couplings                     ...  NO (   0 nuclei)
Quadrupole couplings                    ...  NO (   0 nuclei)
Contact density                         ...  NO (   0 nuclei)

NMR properties:
Chemical shifts                         ...  NO (   0 nuclei)
Spin-rotation constants                 ...  NO (   0 nuclei)
Spin-spin couplings                     ...  NO (   0 nuclei,    0 pairs)

Choice of magnetic origin               ... GIAO
Position of magnetic origin             ...     0.000000     0.000000     0.000000

Properties with geometric perturbations:
SCF Hessian                             ... YES
IR spectrum                             ... YES
VCD spectrum                            ...  NO
X-ray spectroscopy properties:
SCF XES/XAS/RIXS spectra                ...  NO


-----------
SCF HESSIAN
-----------

Occupied/Occupied contributions to the Hessian:
   => Occupied/Occupied contributions              ... done (  0.0 sec)
Perturbed density contributions to the Hessian:
   => Perturbed density contributions              ... done (  0.0 sec)
Explicit contributions to the Hessian:
   => Nuclear repulsion Hessian                    ... done (  0.0 sec)
   => HCore and overlap Hessian                    ... done (  0.0 sec)
   => RI-J Hessian                                 ... done (  0.1 sec)
   => XC-Hessian                                   ... done (  0.2 sec)
   => Van der Waals-Hessian                        ... done (  0.1 sec)
   => GCP-Hessian                                  ... done (  0.0 sec)
   => Explicit contributions done
Dipole derivatives                                 ... done (  0.0 sec)
Mass weighting the Hessian           ... done
Calculating normal modes             ... done
Scaling frequencies                  ... done

-----------------------
VIBRATIONAL FREQUENCIES
-----------------------

Scaling factor for frequencies =  1.000000000  (already applied!)

     0:       0.00 cm**-1
     1:       0.00 cm**-1
     2:       0.00 cm**-1
     3:       0.00 cm**-1
     4:       0.00 cm**-1
     5:       0.00 cm**-1
     6:   -1197.84 cm**-1 ***imaginary mode***
     7:     -63.07 cm**-1 ***imaginary mode***
     8:     423.89 cm**-1
     9:     597.44 cm**-1
    10:     659.16 cm**-1
    11:     803.31 cm**-1
    12:    1012.47 cm**-1
    13:    1135.40 cm**-1
    14:    1203.85 cm**-1
    15:    1363.57 cm**-1
    16:    1366.86 cm**-1
    17:    1464.10 cm**-1
    18:    1554.63 cm**-1
    19:    1631.15 cm**-1
    20:    3180.50 cm**-1
    21:    3240.65 cm**-1
    22:    3264.18 cm**-1
    23:    3316.27 cm**-1


------------
NORMAL MODES
------------

These modes are the Cartesian displacements weighted by the diagonal matrix
M(i,i)=1/sqrt(m[i]) where m[i] is the mass of the displaced atom
Thus, these vectors are normalized but *not* orthogonal

                  0          1          2          3          4          5    
      0       0.000000   0.000000   0.000000   0.000000   0.000000   0.000000
      1       0.000000   0.000000   0.000000   0.000000   0.000000   0.000000
      2       0.000000   0.000000   0.000000   0.000000   0.000000   0.000000
      3       0.000000   0.000000   0.000000   0.000000   0.000000   0.000000
      4       0.000000   0.000000   0.000000   0.000000   0.000000   0.000000
      5       0.000000   0.000000   0.000000   0.000000   0.000000   0.000000
      6       0.000000   0.000000   0.000000   0.000000   0.000000   0.000000
      7       0.000000   0.000000   0.000000   0.000000   0.000000   0.000000
      8       0.000000   0.000000   0.000000   0.000000   0.000000   0.000000
      9       0.000000   0.000000   0.000000   0.000000   0.000000   0.000000
     10       0.000000   0.000000   0.000000   0.000000   0.000000   0.000000
     11       0.000000   0.000000   0.000000   0.000000   0.000000   0.000000
     12       0.000000   0.000000   0.000000   0.000000   0.000000   0.000000
     13       0.000000   0.000000   0.000000   0.000000   0.000000   0.000000
     14       0.000000   0.000000   0.000000   0.000000   0.000000   0.000000
     15       0.000000   0.000000   0.000000   0.000000   0.000000   0.000000
     16       0.000000   0.000000   0.000000   0.000000   0.000000   0.000000
     17       0.000000   0.000000   0.000000   0.000000   0.000000   0.000000
     18       0.000000   0.000000   0.000000   0.000000   0.000000   0.000000
     19       0.000000   0.000000   0.000000   0.000000   0.000000   0.000000
     20       0.000000   0.000000   0.000000   0.000000   0.000000   0.000000
     21       0.000000   0.000000   0.000000   0.000000   0.000000   0.000000
     22       0.000000   0.000000   0.000000   0.000000   0.000000   0.000000
     23       0.000000   0.000000   0.000000   0.000000   0.000000   0.000000
                  6          7          8          9         10         11    
      0      -0.133123   0.000000  -0.253224   0.075573  -0.000000  -0.000000
      1       0.025521  -0.000000   0.166946   0.142880  -0.000000   0.000000
      2      -0.000000   0.046320   0.000000   0.000000   0.042719  -0.039065
      3       0.000609   0.224847  -0.419561  -0.120382   0.595356   0.259820
      4       0.007215  -0.023332   0.164098   0.150300  -0.224966   0.407881
      5      -0.013043   0.024321   0.001314   0.006832  -0.124764   0.223166
      6       0.000609  -0.224847  -0.419561  -0.120382  -0.595356  -0.259819
      7       0.007215   0.023332   0.164098   0.150300   0.224967  -0.407881
      8       0.013043   0.024321  -0.001314  -0.006832  -0.124764   0.223166
      9      -0.028761  -0.000000   0.166123   0.450665  -0.000000   0.000000
     10       0.080128  -0.000000  -0.030852  -0.013549  -0.000000   0.000000
     11       0.000000   0.023717  -0.000000   0.000000   0.023682  -0.032911
     12       0.249377  -0.542644  -0.199706   0.453582   0.119134   0.114385
     13      -0.119392   0.099508   0.206170  -0.029333  -0.077806   0.396458
     14       0.010540  -0.155677  -0.022392  -0.005510   0.030089   0.207388
     15       0.249377   0.542645  -0.199706   0.453582  -0.119134  -0.114385
     16      -0.119392  -0.099508   0.206170  -0.029333   0.077806  -0.396458
     17      -0.010540  -0.155677   0.022392   0.005510   0.030089   0.207388
     18       0.033626   0.000000   0.142953  -0.383084   0.000000  -0.000000
     19      -0.077481   0.000000  -0.108476  -0.082825  -0.000000   0.000000
     20       0.000000  -0.055983  -0.000000  -0.000000  -0.014030  -0.003314
     21       0.795241  -0.000000  -0.417869   0.283182  -0.000000   0.000000
     22       0.425774   0.000000  -0.317708  -0.221978   0.000000   0.000000
     23      -0.000000   0.483295   0.000000  -0.000000  -0.337438   0.059000
                 12         13         14         15         16         17    
      0       0.091915  -0.070989  -0.000000  -0.075072   0.000000  -0.000242
      1       0.010455   0.084458  -0.000000  -0.091146   0.000001  -0.046494
      2      -0.000000   0.000000  -0.152654   0.000000  -0.012710  -0.000000
      3      -0.532205   0.408114   0.117487   0.092053   0.136277   0.022323
      4       0.021075   0.114045   0.414149  -0.336060   0.047665   0.462619
      5       0.027743  -0.002280   0.116630  -0.143571   0.015339   0.313776
      6      -0.532205   0.408114  -0.117487   0.092051  -0.136278   0.022323
      7       0.021075   0.114045  -0.414149  -0.336061  -0.047661   0.462619
      8      -0.027743   0.002280   0.116630   0.143571   0.015337  -0.313776
      9      -0.075271  -0.032409  -0.000000   0.018666  -0.000000  -0.042782
     10       0.062411  -0.023891   0.000000   0.095814  -0.000001  -0.075943
     11      -0.000000  -0.000000   0.161518  -0.000000  -0.031858  -0.000000
     12       0.351226   0.305119  -0.172503   0.342844   0.329357   0.186268
     13      -0.231642  -0.362324  -0.439674   0.352953  -0.309504   0.277977
     14       0.036653  -0.011437  -0.130337   0.242565  -0.022124   0.260916
     15       0.351226   0.305119   0.172503   0.342839  -0.329361   0.186268
     16      -0.231642  -0.362325   0.439674   0.352957   0.309500   0.277977
     17      -0.036653   0.011437  -0.130337  -0.242565  -0.022121  -0.260916
     18       0.019950   0.010351   0.000000   0.000500  -0.000000   0.001810
     19      -0.018308  -0.003352   0.000000   0.006837  -0.000000  -0.000063
     20       0.000000  -0.000000   0.010141  -0.000000  -0.010346   0.000000
     21      -0.212366  -0.389498  -0.000000  -0.207089   0.000001   0.061363
     22      -0.102056  -0.161952  -0.000000  -0.218263   0.000001  -0.021089
     23      -0.000000   0.000000  -0.269330   0.000006   0.739623  -0.000000
                 18         19         20         21         22         23    
      0      -0.003299  -0.077542  -0.000828  -0.000885   0.000000   0.000000
      1       0.003649  -0.251818  -0.000250   0.069762  -0.000000  -0.000000
      2      -0.000000  -0.000000   0.000000  -0.000000  -0.025067  -0.096037
      3       0.023903   0.037423   0.001858   0.020173   0.004010   0.018275
      4       0.043318   0.280313  -0.033414  -0.371809  -0.096195  -0.376484
      5       0.023507   0.365133   0.052854   0.596417   0.145685   0.567673
      6       0.023903   0.037423   0.001858   0.020173  -0.004010  -0.018275
      7       0.043318   0.280313  -0.033414  -0.371808   0.096196   0.376485
      8      -0.023507  -0.365133  -0.052854  -0.596416   0.145687   0.567674
      9      -0.037101   0.116729   0.041520  -0.005717   0.000000  -0.000000
     10       0.041658   0.232618   0.051915  -0.010249   0.000000  -0.000000
     11       0.000000   0.000000  -0.000000   0.000000   0.094019  -0.024599
     12      -0.065147  -0.111070  -0.243178   0.019051   0.247670  -0.064695
     13      -0.047351  -0.224447  -0.280242   0.022859   0.272984  -0.070405
     14      -0.059156  -0.335063   0.596781  -0.047383  -0.573301   0.146952
     15      -0.065147  -0.111070  -0.243177   0.019050  -0.247670   0.064695
     16      -0.047350  -0.224447  -0.280242   0.022858  -0.272985   0.070405
     17       0.059156   0.335062  -0.596780   0.047382  -0.573302   0.146952
     18       0.005954  -0.001616  -0.000689  -0.000160  -0.000000   0.000000
     19       0.018236   0.003485   0.000636  -0.000566   0.000000   0.000000
     20      -0.000000   0.000000   0.000000   0.000000   0.000629   0.000773
     21       0.451670  -0.289188   0.010769   0.003238   0.000000  -0.000000
     22      -0.875510   0.051367  -0.000299  -0.000561   0.000000   0.000000
     23       0.000000   0.000000  -0.000000   0.000000   0.021758  -0.006357


-----------
IR SPECTRUM
-----------

 Mode   freq       eps      Int      T**2         TX        TY        TZ
       cm**-1   L/(mol*cm) km/mol    a.u.
----------------------------------------------------------------------------
  8:    423.89   0.040696  205.66  0.029960  (-0.167332  0.044271  0.000000)
  9:    597.44   0.007571   38.26  0.003954  ( 0.062511  0.006844 -0.000000)
 10:    659.16   0.002314   11.70  0.001096  (-0.000000  0.000000 -0.033100)
 11:    803.31   0.000231    1.17  0.000090  (-0.000000 -0.000000  0.009476)
 12:   1012.47   0.007072   35.74  0.002180  ( 0.010620 -0.045462  0.000000)
 13:   1135.40   0.002163   10.93  0.000595  (-0.022777 -0.008705  0.000000)
 14:   1203.85   0.001054    5.32  0.000273  (-0.000000 -0.000000 -0.016527)
 15:   1363.57   0.007854   39.69  0.001797  (-0.028401 -0.031478  0.000000)
 16:   1366.86   0.005758   29.10  0.001315  ( 0.000000  0.000000  0.036256)
 17:   1464.10   0.002523   12.75  0.000538  ( 0.015702  0.017064  0.000000)
 18:   1554.63   0.011972   60.50  0.002403  ( 0.021165 -0.044218  0.000000)
 19:   1631.15   0.007245   36.61  0.001386  (-0.030253 -0.021698 -0.000000)
 20:   3180.50   0.000714    3.61  0.000070  ( 0.007311  0.004073 -0.000000)
 21:   3240.65   0.002703   13.66  0.000260  ( 0.003996  0.015632 -0.000000)
 22:   3264.18   0.000838    4.24  0.000080  ( 0.000000 -0.000000  0.008951)
 23:   3316.27   0.001738    8.78  0.000164  (-0.000000 -0.000000 -0.012789)

* The epsilon (eps) is given for a Dirac delta lineshape.
** The dipole moment derivative (T) already includes vibrational overlap.

The first frequency considered to be a vibration is 8
The total number of vibrations considered is 16


--------------------------
THERMOCHEMISTRY AT 298.15K
--------------------------

Temperature         ...   298.15 K
Pressure            ...     1.00 atm
Total Mass          ...    48.06 AMU
Quasi RRHO          ...     True
Cut-Off Frequency   ...     1.00 cm^-1

Throughout the following assumptions are being made:
  (1) The electronic state is orbitally nondegenerate
  (2) There are no thermally accessible electronically excited states
  (3) Hindered rotations indicated by low frequency modes are not
      treated as such but are treated as vibrations and this may
      cause some error
  (4) All equations used are the standard statistical mechanics
      equations for an ideal gas
  (5) All vibrations are strictly harmonic

freq.     423.89  E(vib)   ...       0.18 
freq.     597.44  E(vib)   ...       0.10 
freq.     659.16  E(vib)   ...       0.08 
freq.     803.31  E(vib)   ...       0.05 
freq.    1012.47  E(vib)   ...       0.02 
freq.    1135.40  E(vib)   ...       0.01 
freq.    1203.85  E(vib)   ...       0.01 
freq.    1363.57  E(vib)   ...       0.01 
freq.    1366.86  E(vib)   ...       0.01 
freq.    1464.10  E(vib)   ...       0.00 
freq.    1554.63  E(vib)   ...       0.00 
freq.    1631.15  E(vib)   ...       0.00 
freq.    3180.50  E(vib)   ...       0.00 
freq.    3240.65  E(vib)   ...       0.00 
freq.    3264.18  E(vib)   ...       0.00 
freq.    3316.27  E(vib)   ...       0.00 

------------
INNER ENERGY
------------

The inner energy is: U= E(el) + E(ZPE) + E(vib) + E(rot) + E(trans)
    E(el)   - is the total energy from the electronic structure calculation
              = E(kin-el) + E(nuc-el) + E(el-el) + E(nuc-nuc)
    E(ZPE)  - the the zero temperature vibrational energy from the frequency calculation
    E(vib)  - the the finite temperature correction to E(ZPE) due to population
              of excited vibrational states
    E(rot)  - is the rotational thermal energy
    E(trans)- is the translational thermal energy

Summary of contributions to the inner energy U:
Electronic energy                ...   -178.87741063 Eh
Zero point energy                ...      0.05972769 Eh      37.48 kcal/mol
Thermal vibrational correction   ...      0.00075881 Eh       0.48 kcal/mol
Thermal rotational correction    ...      0.00141627 Eh       0.89 kcal/mol
Thermal translational correction ...      0.00141627 Eh       0.89 kcal/mol
-----------------------------------------------------------------------
Total thermal energy                   -178.81409158 Eh


Summary of corrections to the electronic energy:
(perhaps to be used in another calculation)
Total thermal correction                  0.00359136 Eh       2.25 kcal/mol
Non-thermal (ZPE) correction              0.05972769 Eh      37.48 kcal/mol
-----------------------------------------------------------------------
Total correction                          0.06331905 Eh      39.73 kcal/mol


--------
ENTHALPY
--------

The enthalpy is H = U + kB*T
                kB is Boltzmann's constant
Total thermal energy              ...   -178.81409158 Eh 
Thermal Enthalpy correction       ...      0.00094421 Eh       0.59 kcal/mol
-----------------------------------------------------------------------
Total Enthalpy                    ...   -178.81314737 Eh


Note: Rotational entropy computed according to Herzberg 
Infrared and Raman Spectra, Chapter V,1, Van Nostrand Reinhold, 1945 
Point Group:  Cs, Symmetry Number:   1  
Rotational constants in cm-1:     0.822749     0.339062     0.264515 

Vibrational entropy computed according to the QRRHO of S. Grimme
Chem.Eur.J. 2012 18 9955 using a reference frequency of 100.0 cm-1


-------
ENTROPY
-------

The entropy contributions are T*S = T*(S(el)+S(vib)+S(rot)+S(trans))
     S(el)   - electronic entropy
     S(vib)  - vibrational entropy
     S(rot)  - rotational entropy
     S(trans)- translational entropy
The entropies will be listed as multiplied by the temperature to get
units of energy

Electronic entropy                ...      0.00000000 Eh      0.00 kcal/mol
Vibrational entropy               ...      0.00102329 Eh      0.64 kcal/mol
Rotational entropy                ...      0.01074133 Eh      6.74 kcal/mol
Translational entropy             ...      0.01783351 Eh     11.19 kcal/mol
-----------------------------------------------------------------------
Final entropy term                ...      0.02959813 Eh     18.57 kcal/mol

In case the symmetry of your molecule has not been determined correctly
or in case you have a reason to use a different symmetry number we print 
out the resulting rotational entropy values for sn=1,12:

 non-linear molecules -----------------------------------
|  sn= 1 | S(rot)=       0.01074133 Eh      6.74 kcal/mol|
|  sn= 2 | S(rot)=       0.01008687 Eh      6.33 kcal/mol|
|  sn= 3 | S(rot)=       0.00970404 Eh      6.09 kcal/mol|
|  sn= 4 | S(rot)=       0.00943242 Eh      5.92 kcal/mol|
|  sn= 5 | S(rot)=       0.00922173 Eh      5.79 kcal/mol|
|  sn= 6 | S(rot)=       0.00904958 Eh      5.68 kcal/mol|
|  sn= 7 | S(rot)=       0.00890404 Eh      5.59 kcal/mol|
|  sn= 8 | S(rot)=       0.00877796 Eh      5.51 kcal/mol|
|  sn= 9 | S(rot)=       0.00866675 Eh      5.44 kcal/mol|
|  sn=10 | S(rot)=       0.00856727 Eh      5.38 kcal/mol|
|  sn=11 | S(rot)=       0.00847728 Eh      5.32 kcal/mol|
|  sn=12 | S(rot)=       0.00839513 Eh      5.27 kcal/mol|
 linear molecules ---------------------------------------
|  Dinfh | S(rot)=       0.00658143 Eh      4.13 kcal/mol|
|  Cinfv | S(rot)=       0.00723589 Eh      4.54 kcal/mol|
 --------------------------------------------------------


-------------------
GIBBS FREE ENERGY
-------------------

The Gibbs free energy is G = H - T*S

Total enthalpy                    ...   -178.81314737 Eh 
Total entropy correction          ...     -0.02959813 Eh    -18.57 kcal/mol
-----------------------------------------------------------------------
Final Gibbs free energy         ...   -178.84274550 Eh

For completeness - the Gibbs free energy minus the electronic energy
G-E(el)                           ...      0.03466512 Eh     21.75 kcal/mol


Maximum memory used throughout the entire PROP-calculation: 24.4 MB
Actual Hessian File stored as ethene_HF_TS.001.hess
------------------------------------------------------------------------------
                         ORCA GEOMETRY RELAXATION STEP
------------------------------------------------------------------------------

Reading the OPT-File                    .... done
Getting information on internals        .... done
Copying old internal coords+grads       .... done
Making the new internal coordinates     .... (2022 redundants) done
Validating the new internal coordinates .... (2022 redundants) done
Calculating the B-matrix                .... done
Calculating the G,G- and P matrices     .... done
Transforming gradient to internals      .... done
Projecting the internal gradient        .... done
Number of atoms                         ....   8
Number of internal coordinates          ....  35
Current Energy                          ....  -178.877410626 Eh
Current gradient norm                   ....     0.109102894 Eh/bohr
Maximum allowed component of the step   ....  0.300
Current trust radius                    ....  0.300
Evaluating the initial hessian          ....  (read) 
(Reading Exact Hessian)...  
InHessName: ethene_HF_TS.hess	The file <ethene_HF_TS.hess> is opened as a .hess file
done
done
Projecting the Hessian                  .... done
Diagonalizing the Hessian               .... done
Dimension of the hessian                ....  35
Lowest eigenvalues of the Hessian:
 -0.115682603 -0.000482648  0.011146576  0.020679912  0.038288859
Hessian has   2 negative eigenvalues
Taking P-RFO step
Searching for lambda that maximizes along the lowest mode
TS mode is mode number   0 with eigenvalue  -0.11568260 and components:
   1.    0.00010903
   2.    0.00010903
   3.    0.12572903
   4.   -0.00157159
   5.   -0.00157159
   6.   -0.67765660
   7.    0.55542405
   8.   -0.31163664
   9.   -0.02696533
  10.   -0.00373405
  11.   -0.04261180
  12.   -0.04261180
  13.   -0.02696533
  14.    0.19290955
  15.   -0.03906120
  16.   -0.00634928
  17.   -0.01545965
  18.    0.06854239
  19.    0.06854239
  20.   -0.01545966
  21.    0.02623460
  22.   -0.18008295
  23.   -0.05270685
  24.   -0.00724013
  25.    0.11265384
  26.   -0.11265384
  27.    0.05270685
  28.    0.00724013
  29.    0.02588601
  30.    0.00000000
  31.   -0.02588601
  32.   -0.00000000
  33.    0.00709027
  34.   -0.00709027
  35.    0.00000000

Lambda that maximizes along the TS mode:       0.01651833
Searching for lambda that minimizes along all other modes
In cycle   1: lambdaN =  -0.03391922   step =  -0.01656343
In cycle   2: lambdaN =  -0.03438046   step =   0.00046124
In cycle   3: lambdaN =  -0.03438096   step =   0.00000050
In cycle   4: lambdaN =  -0.03438096   step =   0.00000000
Lambda that minimizes along all other modes:  -0.03438096
Calculated stepsize too large (   0.6298 >    0.3000). Scaled with    0.4763.
The final length of the internal step   ....       0.3000
Converting the step to Cartesian space:
 Initial RMS(Int)=    0.0507092553
Transforming coordinates:
 Iter   0:  RMS(Cart)=    0.0503365429 RMS(Int)=    0.0506170667
 Iter   5:  RMS(Cart)=    0.0000000616 RMS(Int)=    0.0000000585
done
Storing new coordinates                 .... done

                                .--------------------.
          ----------------------|Geometry convergence|-------------------------
          Item                value                   Tolerance       Converged
          ---------------------------------------------------------------------
          RMS gradient        0.0154838953            0.0001000000      NO
          MAX gradient        0.0504554213            0.0003000000      NO
          RMS step            0.0507092553            0.0020000000      NO
          MAX step            0.1429006773            0.0040000000      NO
          ........................................................
          Max(Bonds)      0.0678      Max(Angles)    8.19
          Max(Dihed)        3.40      Max(Improp)    0.00
          ---------------------------------------------------------------------

The optimization has not yet converged - more geometry cycles are needed


    ---------------------------------------------------------------------------
                         Redundant Internal Coordinates
                            (Angstroem and degrees)

        Definition                    Value    dE/dq     Step     New-Value  comp.(TS mode)
    ----------------------------------------------------------------------------
     1. B(H   1,C   0)                1.0681 -0.009701  0.0043    1.0724   
     2. B(H   2,C   0)                1.0681 -0.009701  0.0043    1.0724   
     3. B(C   3,C   0)                1.3552 -0.050455  0.0123    1.3675   
     4. B(H   4,C   3)                1.0710 -0.009785  0.0048    1.0758   
     5. B(H   5,C   3)                1.0710 -0.009785  0.0048    1.0758   
     6. B(F   6,C   0)                1.9375  0.020890  0.0572    1.9946          0.68
     7. B(H   7,F   6)                1.4687 -0.031925 -0.0678    1.4009          0.56
     8. B(H   7,C   3)                1.2660  0.012648  0.0024    1.2684          0.31
     9. A(H   1,C   0,C   3)          120.33  0.000617    0.63    120.96   
    10. A(H   1,C   0,H   2)          112.25 -0.004181    1.53    113.77   
    11. A(H   2,C   0,F   6)          107.45  0.013495   -3.13    104.32   
    12. A(H   1,C   0,F   6)          107.45  0.013495   -3.13    104.32   
    13. A(H   2,C   0,C   3)          120.33  0.000617    0.63    120.96   
    14. A(C   3,C   0,F   6)           82.49 -0.021006    0.91     83.40   
    15. A(C   0,C   3,H   7)           99.29  0.036115   -6.01     93.28   
    16. A(H   4,C   3,H   5)          115.47  0.000808    0.43    115.91   
    17. A(C   0,C   3,H   5)          120.24  0.000169   -0.12    120.12   
    18. A(H   5,C   3,H   7)           95.34 -0.020525    2.95     98.29   
    19. A(H   4,C   3,H   7)           95.34 -0.020525    2.95     98.29   
    20. A(C   0,C   3,H   4)          120.24  0.000169   -0.12    120.12   
    21. A(C   0,F   6,H   7)           70.31  0.010183   -3.89     66.42   
    22. A(C   3,H   7,F   6)          107.91 -0.025292    8.19    116.10   
    23. D(H   4,C   3,C   0,F   6)   -101.81  0.001692    0.30   -101.50   
    24. D(H   5,C   3,C   0,H   1)     -4.05 -0.005360    2.79     -1.27   
    25. D(H   5,C   3,C   0,H   2)   -152.33  0.001976   -3.40   -155.73   
    26. D(H   4,C   3,C   0,H   1)    152.33 -0.001976    3.40    155.73   
    27. D(H   5,C   3,C   0,F   6)    101.81 -0.001692   -0.30    101.50   
    28. D(H   4,C   3,C   0,H   2)      4.05  0.005360   -2.79      1.27   
    29. D(H   7,F   6,C   0,H   1)    119.51 -0.005017    0.83    120.34   
    30. D(H   7,F   6,C   0,C   3)      0.00 -0.000000    0.00      0.00   
    31. D(H   7,F   6,C   0,H   2)   -119.51  0.005017   -0.83   -120.34   
    32. D(C   3,H   7,F   6,C   0)      0.00  0.000000   -0.00     -0.00   
    33. D(F   6,H   7,C   3,H   5)   -121.86 -0.002678    0.66   -121.20   
    34. D(F   6,H   7,C   3,H   4)    121.86  0.002678   -0.66    121.20   
    35. D(F   6,H   7,C   3,C   0)      0.00 -0.000000    0.00      0.00   
    ----------------------------------------------------------------------------

Geometry step timings:
Preparation and reading OPT file:      0.000 s ( 2.105 %)
Internal coordinates            :      0.000 s ( 0.216 %)
B/P matrices and projection     :      0.000 s ( 2.587 %)
Hessian update/contruction      :      0.007 s (88.459 %)
Making the step                 :      0.000 s ( 2.651 %)
Converting the step to Cartesian:      0.000 s ( 0.482 %)
Storing new data                :      0.000 s ( 0.266 %)
Checking convergence            :      0.000 s ( 0.025 %)
Final printing                  :      0.000 s ( 3.145 %)
Total time                      :      0.008 s

Time for energy+gradient        :      1.974 s
Time for complete geometry iter :      4.314 s

         *************************************************************
         *                GEOMETRY OPTIMIZATION CYCLE   2            *
         *************************************************************
---------------------------------
CARTESIAN COORDINATES (ANGSTROEM)
---------------------------------
  C      0.469501   -0.750459    0.000000
  H      0.475520   -1.337525    0.897391
  H      0.475520   -1.337525   -0.897391
  C      0.927599    0.537495   -0.000000
  H      1.284014    0.983747   -0.911633
  H      1.284014    0.983747    0.911633
  F     -1.314811    0.134952    0.000000
  H     -0.241037    1.037377   -0.000000

----------------------------
CARTESIAN COORDINATES (A.U.)
----------------------------
  NO LB      ZA    FRAG     MASS         X           Y           Z
   0 C     6.0000    0    12.011    0.887228   -1.418163    0.000000
   1 H     1.0000    0     1.008    0.898603   -2.527556    1.695822
   2 H     1.0000    0     1.008    0.898603   -2.527555   -1.695822
   3 C     6.0000    0    12.011    1.752907    1.015719   -0.000000
   4 H     1.0000    0     1.008    2.426435    1.859012   -1.722736
   5 H     1.0000    0     1.008    2.426435    1.859012    1.722736
   6 F     9.0000    0    18.998   -2.484632    0.255023    0.000000
   7 H     1.0000    0     1.008   -0.455494    1.960358   -0.000000

--------------------------------
INTERNAL COORDINATES (ANGSTROEM)
--------------------------------
 C      0   0   0     0.000000000000     0.00000000     0.00000000
 H      1   0   0     1.072376778486     0.00000000     0.00000000
 H      1   2   0     1.072376776836   113.61248813     0.00000000
 C      1   2   3     1.366997058215   120.92448933   203.69607560
 H      4   1   2     1.075754028630   120.12373796   155.74217006
 H      4   1   2     1.075754027753   120.12373778   358.83731688
 F      1   2   3     1.991914131455   104.38098222   113.07386043
 H      4   1   2     1.271058849149    93.57932028   257.28974358

---------------------------
INTERNAL COORDINATES (A.U.)
---------------------------
 C      0   0   0     0.000000000000     0.00000000     0.00000000
 H      1   0   0     2.026498423715     0.00000000     0.00000000
 H      1   2   0     2.026498420597   113.61248813     0.00000000
 C      1   2   3     2.583250065903   120.92448933   203.69607560
 H      4   1   2     2.032880501573   120.12373796   155.74217006
 H      4   1   2     2.032880499916   120.12373778   358.83731688
 F      1   2   3     3.764172190738   104.38098222   113.07386043
 H      4   1   2     2.401953124988    93.57932028   257.28974358



           ************************************************************
           *        Program running with 24 parallel MPI-processes    *
           *              working on a common directory               *
           ************************************************************
------------------------------------------------------------------------------
                   ___                                                        
                  /   \      - P O W E R E D   B Y -                         
                 /     \                                                     
                 |  |  |   _    _      __       _____    __    __             
                 |  |  |  | |  | |    /  \     |  _  \  |  |  /  |          
                  \  \/   | |  | |   /    \    | | | |  |  | /  /          
                 / \  \   | |__| |  /  /\  \   | |_| |  |  |/  /          
                |  |  |   |  __  | /  /__\  \  |    /   |      \           
                |  |  |   | |  | | |   __   |  |    \   |  |\   \          
                \     /   | |  | | |  |  |  |  | |\  \  |  | \   \       
                 \___/    |_|  |_| |__|  |__|  |_| \__\ |__|  \__/        
                                                                              
                      - O R C A' S   B I G   F R I E N D -                    
                                      &                                       
                       - I N T E G R A L  F E E D E R -                       
                                                                              
 v1 FN, 2020, v2 2021, v3 2022-2024                                           
------------------------------------------------------------------------------


----------------------
SHARK INTEGRAL PACKAGE
----------------------

Number of atoms                             ...      8
Number of basis functions                   ...     72
Number of shells                            ...     42
Maximum angular momentum                    ...      2
Integral batch strategy                     ... SHARK/LIBINT Hybrid
RI-J (if used) integral strategy            ... SPLIT-RIJ (Revised 2003 algorithm where possible)
Printlevel                                  ...      1
Contraction scheme used                     ... SEGMENTED contraction
Prescreening option                         ... SCHWARTZ
   Thresh                                   ... 2.500e-11
   Tcut                                     ... 2.500e-12
   Tpresel                                  ... 2.500e-12 
Coulomb Range Separation                    ... NOT USED
Exchange Range Separation                   ... NOT USED
Multipole approximations                    ... NOT USED
Finite Nucleus Model                        ... NOT USED
CABS basis                                  ... NOT available
Auxiliary Coulomb fitting basis             ... AVAILABLE
   # of basis functions in Aux-J            ...    125
   # of shells in Aux-J                     ...     57
   Maximum angular momentum in Aux-J        ...      2
Auxiliary J/K fitting basis                 ... NOT available
Auxiliary Correlation fitting basis         ... NOT available
Auxiliary 'external' fitting basis          ... NOT available

Checking pre-screening integrals            ... done (  0.0 sec) Dimension = 42
Check shell pair data                       ... done (  0.0 sec)
Shell pair information
Shell pair cut-off parameter TPreSel        ...   2.5e-12
Total number of shell pairs                 ...       903
Shell pairs after pre-screening             ...       889
Total number of primitive shell pairs       ...      3241
Primitive shell pairs kept                  ...      2589
          la=0 lb=0:    452 shell pairs
          la=1 lb=0:    269 shell pairs
          la=1 lb=1:     45 shell pairs
          la=2 lb=0:     90 shell pairs
          la=2 lb=1:     27 shell pairs
          la=2 lb=2:      6 shell pairs

Calculating one electron integrals          ... done (  0.0 sec)
Calculating RI/J V-Matrix + Cholesky decomp.... done (  0.0 sec)
Calculating Nuclear repulsion               ... done (  0.0 sec) ENN=     75.666816562921 Eh

Diagonalization of the overlap matrix:
Smallest eigenvalue                        ... 5.634e-04
Time for diagonalization                   ...    0.001 sec
Threshold for overlap eigenvalues          ... 1.000e-07
Number of eigenvalues below threshold      ... 0
Time for construction of square roots      ...    0.000 sec
Total time needed                          ...    0.002 sec

-------------------
DFT GRID GENERATION
-------------------

General Integration Accuracy     IntAcc      ... 4.388
Radial Grid Type                 RadialGrid  ... OptM3 with GC (2021)
Angular Grid (max. ang.)         AngularGrid ... 4 (Lebedev-302)
Angular grid pruning method      GridPruning ... 4 (adaptive)
Weight generation scheme         WeightScheme... mBecke (2022)
Basis function cutoff            BFCut       ... 1.0000e-11
Integration weight cutoff        WCut        ... 1.0000e-14
Partially contracted basis set               ... off
Rotationally invariant grid construction     ... off
Angular grids for H and He will be reduced by one unit

Total number of grid points                  ...    34545
Total number of batches                      ...      544
Average number of points per batch           ...       63
Average number of grid points per atom       ...     4318
Initializing property integral containers    ... done (  0.0 sec)

SHARK setup successfully completed in   0.2 seconds

Maximum memory used throughout the entire STARTUP-calculation: 9.1 MB


           ************************************************************
           *        Program running with 24 parallel MPI-processes    *
           *              working on a common directory               *
           ************************************************************
Occupation numbers will be reassigned to an Aufbau configuration
             **** ENERGY FILE WAS UPDATED (ethene_HF_TS.en.tmp) ****
Finished Guess after   0.1 sec
Maximum memory used throughout the entire GUESS-calculation: 4.5 MB


           ************************************************************
           *        Program running with 24 parallel MPI-processes    *
           *              working on a common directory               *
           ************************************************************
----------------------------------------D-I-I-S--------------------------------------------
Iteration    Energy (Eh)           Delta-E    RMSDP     MaxDP     DIISErr   Damp  Time(sec)
-------------------------------------------------------------------------------------------
               ***  Starting incremental Fock matrix formation  ***
    1    -178.8569883748300811     0.00e+00  5.42e-04  4.70e-03  2.58e-02  0.700   0.0
    2    -178.8577518662101227    -7.63e-04  5.47e-04  5.10e-03  2.04e-02  0.700   0.0
                               ***Turning on AO-DIIS***
    3    -178.8583793719288337    -6.28e-04  4.54e-04  4.82e-03  1.54e-02  0.700   0.0
    4    -178.8588308555295043    -4.51e-04  1.17e-03  1.26e-02  1.11e-02  0.000   0.0
                              *** Initializing SOSCF ***
---------------------------------------S-O-S-C-F--------------------------------------
[...]
      8       0.000000   0.000000   0.000000   0.000000   0.000000   0.000000
      9       0.000000   0.000000   0.000000   0.000000   0.000000   0.000000
     10       0.000000   0.000000   0.000000   0.000000   0.000000   0.000000
     11       0.000000   0.000000   0.000000   0.000000   0.000000   0.000000
     12       0.000000   0.000000   0.000000   0.000000   0.000000   0.000000
     13       0.000000   0.000000   0.000000   0.000000   0.000000   0.000000
     14       0.000000   0.000000   0.000000   0.000000   0.000000   0.000000
     15       0.000000   0.000000   0.000000   0.000000   0.000000   0.000000
     16       0.000000   0.000000   0.000000   0.000000   0.000000   0.000000
     17       0.000000   0.000000   0.000000   0.000000   0.000000   0.000000
     18       0.000000   0.000000   0.000000   0.000000   0.000000   0.000000
     19       0.000000   0.000000   0.000000   0.000000   0.000000   0.000000
     20       0.000000   0.000000   0.000000   0.000000   0.000000   0.000000
     21       0.000000   0.000000   0.000000   0.000000   0.000000   0.000000
     22       0.000000   0.000000   0.000000   0.000000   0.000000   0.000000
     23       0.000000   0.000000   0.000000   0.000000   0.000000   0.000000
                  6          7          8          9         10         11    
      0       0.078039  -0.002402  -0.160570   0.417619  -0.000050  -0.000050
      1       0.014837   0.002967   0.250983  -0.144413   0.000006  -0.000014
      2      -0.000064   0.043046  -0.001986   0.000115  -0.059869  -0.014519
      3      -0.023389   0.281913  -0.316683   0.349582  -0.077652  -0.593977
      4       0.031790  -0.013690   0.301254  -0.100722   0.491866   0.065261
      5      -0.000796   0.080792  -0.003613   0.013968   0.224229  -0.073793
      6      -0.022942  -0.289679  -0.288910   0.344932   0.077227   0.594532
      7       0.031532   0.020620   0.299357  -0.100803  -0.491764  -0.065423
      8       0.000789   0.080863  -0.003856  -0.012904   0.224047  -0.073887
      9       0.032073   0.004244   0.398248   0.093992  -0.000004  -0.000089
     10      -0.045117  -0.000165  -0.013844   0.013543   0.000015   0.000020
     11       0.000021   0.017770  -0.000982   0.000071  -0.031101   0.010646
     12      -0.080273  -0.508025   0.390411   0.097341   0.077385  -0.216884
     13       0.045834   0.162156  -0.027871   0.030437   0.387484  -0.127418
     14      -0.007784  -0.133770  -0.005923   0.004629   0.177630  -0.138983
     15      -0.080066   0.516068   0.341917   0.106872  -0.076958   0.217046
     16       0.045710  -0.162721  -0.011350   0.026715  -0.387681   0.127144
     17       0.007554  -0.132491   0.017676  -0.007012   0.177472  -0.138574
     18      -0.014914  -0.001197  -0.161784  -0.401696   0.000031   0.000035
     19       0.039457  -0.001996  -0.167279   0.084837  -0.000029  -0.000016
     20      -0.000021  -0.056913   0.002781  -0.000229   0.006708   0.007508
     21      -0.824297   0.000343   0.090351   0.575934   0.000043   0.000263
     22      -0.537715  -0.002144  -0.234329   0.104840   0.000392   0.000670
     23       0.001146   0.452599  -0.021326   0.003427   0.154173   0.329895
                 12         13         14         15         16         17    
      0       0.025632  -0.100518  -0.000298  -0.000726  -0.101548  -0.013264
      1       0.017462   0.060705  -0.000469  -0.001381  -0.167533  -0.047757
      2       0.000062  -0.000026   0.143134  -0.022680  -0.000206  -0.000051
      3       0.021169   0.681211  -0.179627   0.147904  -0.008059   0.092242
      4       0.002354  -0.133956  -0.392957   0.026286  -0.448691   0.350170
      5      -0.006403   0.001392  -0.118566   0.018676  -0.127400   0.247463
      6       0.020613   0.680615   0.179530  -0.148381  -0.005141   0.092201
      7       0.002829  -0.134192   0.390470  -0.032993  -0.450748   0.350140
      8       0.006330  -0.001365  -0.117754   0.020462   0.127622  -0.247403
      9      -0.082559   0.025898   0.000297   0.000799   0.088772  -0.041162
     10       0.065617  -0.050414   0.000405   0.001298   0.182983  -0.076417
     11      -0.000167  -0.000015  -0.153514  -0.026266   0.000918   0.000057
     12       0.519392  -0.018794   0.169510   0.333151   0.250784   0.266454
     13      -0.427569  -0.052514   0.450186  -0.267400   0.367163   0.351214
     14       0.034911  -0.017166   0.120152   0.005216   0.127976   0.312431
     15       0.518559  -0.019208  -0.168117  -0.330577   0.261593   0.267376
     16      -0.426506  -0.052695  -0.447253   0.274193   0.362921   0.351476
     17      -0.034007   0.017309   0.118787   0.002601  -0.128865  -0.312292
     18      -0.007047  -0.017336  -0.000042  -0.000089  -0.007252   0.000266
     19      -0.012473   0.011790   0.000014   0.000008   0.003936  -0.002483
     20      -0.000024   0.000006  -0.007447  -0.012136   0.000200   0.000010
     21      -0.268576  -0.107953  -0.000496  -0.001298  -0.210263  -0.074756
     22       0.094028   0.028536   0.000060   0.000752  -0.088927   0.123404
     23       0.000872   0.000202   0.261420   0.764992  -0.011591  -0.000444
                 18         19         20         21         22         23    
      0       0.058216   0.009788  -0.000171  -0.016628  -0.000013   0.000008
      1       0.112251   0.092784   0.000714  -0.064859  -0.000068   0.000068
      2      -0.000011  -0.000056   0.000028  -0.000106   0.031204  -0.096212
      3      -0.133336  -0.006195   0.005763   0.090781   0.030462  -0.093535
      4      -0.320864  -0.173610   0.022443   0.351687   0.108134  -0.342664
      5      -0.291424  -0.171671  -0.037847  -0.602653  -0.184055   0.568175
      6      -0.133289  -0.006359   0.005719   0.091053  -0.030351   0.093458
      7      -0.321037  -0.173900   0.022231   0.352245  -0.107576   0.341890
      8       0.291340   0.171642   0.037514   0.603939  -0.183218   0.567225
      9      -0.012532  -0.089977  -0.044129   0.004403   0.000213   0.000048
     10      -0.118647  -0.045816  -0.047522   0.007378   0.000117   0.000013
     11       0.000072  -0.000027  -0.000282   0.000055  -0.095051  -0.030174
     12       0.054646   0.185303   0.250419  -0.013546  -0.250680  -0.081196
     13       0.181514   0.106752   0.259536  -0.014331  -0.251588  -0.082789
     14       0.161523   0.196788  -0.602693   0.033330   0.570217   0.182871
     15       0.055324   0.185362   0.250688  -0.013802   0.248274   0.080611
     16       0.181517   0.107233   0.261179  -0.014630   0.250421   0.082606
     17      -0.161595  -0.196493   0.606113  -0.034021   0.567242   0.182365
     18      -0.007051   0.007981   0.000341   0.000193  -0.000002  -0.000001
     19      -0.013395   0.014633   0.000046   0.000457  -0.000000  -0.000001
     20       0.000024  -0.000026  -0.000002  -0.000000  -0.000195   0.000428
     21      -0.254820   0.446987   0.008853  -0.012452  -0.000045   0.000016
     22       0.607534  -0.701929  -0.008501   0.001336   0.000028   0.000008
     23      -0.001011   0.001215  -0.000027   0.000009  -0.005726  -0.002736


-----------
IR SPECTRUM
-----------

 Mode   freq       eps      Int      T**2         TX        TY        TZ
       cm**-1   L/(mol*cm) km/mol    a.u.
----------------------------------------------------------------------------
  7:    450.18   0.001394    7.05  0.000966  (-0.000420  0.000772  0.031074)
  8:    465.51   0.001820    9.20  0.001220  ( 0.013045  0.032392 -0.000714)
  9:    486.32   0.053675  271.25  0.034442  ( 0.185436 -0.007463  0.000014)
 10:    812.52   0.000894    4.52  0.000343  ( 0.000022  0.000004  0.018532)
 11:    866.40   0.000827    4.18  0.000298  ( 0.000050  0.000018  0.017254)
 12:    925.38   0.006675   33.73  0.002251  (-0.001694 -0.047413  0.000128)
 13:   1067.09   0.000840    4.25  0.000246  (-0.015317  0.003325  0.000019)
 14:   1234.15   0.000475    2.40  0.000120  (-0.000192 -0.000044  0.010960)
 15:   1260.57   0.004174   21.09  0.001033  (-0.000623 -0.000191  0.032137)
 16:   1278.02   0.013765   69.56  0.003361  (-0.052188 -0.025245 -0.000324)
 17:   1463.92   0.002024   10.23  0.000432  ( 0.001870  0.020689 -0.000001)
 18:   1527.60   0.007432   37.56  0.001518  (-0.016784  0.035165 -0.000039)
 19:   1593.74   0.025463  128.68  0.004986  ( 0.067099 -0.021988  0.000022)
 20:   3104.39   0.000393    1.99  0.000039  (-0.001737 -0.006039 -0.000044)
 21:   3132.38   0.002070   10.46  0.000206  (-0.004615 -0.013597 -0.000005)
 22:   3189.92   0.000577    2.91  0.000056  (-0.000009 -0.000011 -0.007511)
 23:   3229.38   0.001053    5.32  0.000102  ( 0.000008  0.000017 -0.010088)

* The epsilon (eps) is given for a Dirac delta lineshape.
** The dipole moment derivative (T) already includes vibrational overlap.

The first frequency considered to be a vibration is 7
The total number of vibrations considered is 17


--------------------------
THERMOCHEMISTRY AT 298.15K
--------------------------

Temperature         ...   298.15 K
Pressure            ...     1.00 atm
Total Mass          ...    48.06 AMU
Quasi RRHO          ...     True
Cut-Off Frequency   ...     1.00 cm^-1

Throughout the following assumptions are being made:
  (1) The electronic state is orbitally nondegenerate
  (2) There are no thermally accessible electronically excited states
  (3) Hindered rotations indicated by low frequency modes are not
      treated as such but are treated as vibrations and this may
      cause some error
  (4) All equations used are the standard statistical mechanics
      equations for an ideal gas
  (5) All vibrations are strictly harmonic

freq.     450.18  E(vib)   ...       0.17 
freq.     465.51  E(vib)   ...       0.16 
freq.     486.32  E(vib)   ...       0.15 
freq.     812.52  E(vib)   ...       0.05 
freq.     866.40  E(vib)   ...       0.04 
freq.     925.38  E(vib)   ...       0.03 
freq.    1067.09  E(vib)   ...       0.02 
freq.    1234.15  E(vib)   ...       0.01 
freq.    1260.57  E(vib)   ...       0.01 
freq.    1278.02  E(vib)   ...       0.01 
freq.    1463.92  E(vib)   ...       0.00 
freq.    1527.60  E(vib)   ...       0.00 
freq.    1593.74  E(vib)   ...       0.00 
freq.    3104.39  E(vib)   ...       0.00 
freq.    3132.38  E(vib)   ...       0.00 
freq.    3189.92  E(vib)   ...       0.00 
freq.    3229.38  E(vib)   ...       0.00 

------------
INNER ENERGY
------------

The inner energy is: U= E(el) + E(ZPE) + E(vib) + E(rot) + E(trans)
    E(el)   - is the total energy from the electronic structure calculation
              = E(kin-el) + E(nuc-el) + E(el-el) + E(nuc-nuc)
    E(ZPE)  - the the zero temperature vibrational energy from the frequency calculation
    E(vib)  - the the finite temperature correction to E(ZPE) due to population
              of excited vibrational states
    E(rot)  - is the rotational thermal energy
    E(trans)- is the translational thermal energy

Summary of contributions to the inner energy U:
Electronic energy                ...   -178.89838498 Eh
Zero point energy                ...      0.05943165 Eh      37.29 kcal/mol
Thermal vibrational correction   ...      0.00101601 Eh       0.64 kcal/mol
Thermal rotational correction    ...      0.00141627 Eh       0.89 kcal/mol
Thermal translational correction ...      0.00141627 Eh       0.89 kcal/mol
-----------------------------------------------------------------------
Total thermal energy                   -178.83510477 Eh


Summary of corrections to the electronic energy:
(perhaps to be used in another calculation)
Total thermal correction                  0.00384856 Eh       2.41 kcal/mol
Non-thermal (ZPE) correction              0.05943165 Eh      37.29 kcal/mol
-----------------------------------------------------------------------
Total correction                          0.06328021 Eh      39.71 kcal/mol


--------
ENTHALPY
--------

The enthalpy is H = U + kB*T
                kB is Boltzmann's constant
Total thermal energy              ...   -178.83510477 Eh 
Thermal Enthalpy correction       ...      0.00094421 Eh       0.59 kcal/mol
-----------------------------------------------------------------------
Total Enthalpy                    ...   -178.83416056 Eh


Note: Only C1 symmetry has been detected, increase convergence thresholds 
      if your molecule has a higher symmetry. Symmetry factor of 1.0 is   
      used for the rotational entropy correction. 
 

Note: Rotational entropy computed according to Herzberg 
Infrared and Raman Spectra, Chapter V,1, Van Nostrand Reinhold, 1945 
Point Group:  C1, Symmetry Number:   1  
Rotational constants in cm-1:     0.908257     0.291646     0.242300 

Vibrational entropy computed according to the QRRHO of S. Grimme
Chem.Eur.J. 2012 18 9955 using a reference frequency of 100.0 cm-1


-------
ENTROPY
-------

The entropy contributions are T*S = T*(S(el)+S(vib)+S(rot)+S(trans))
     S(el)   - electronic entropy
     S(vib)  - vibrational entropy
     S(rot)  - rotational entropy
     S(trans)- translational entropy
The entropies will be listed as multiplied by the temperature to get
units of energy

Electronic entropy                ...      0.00000000 Eh      0.00 kcal/mol
Vibrational entropy               ...      0.00139088 Eh      0.87 kcal/mol
Rotational entropy                ...      0.01080718 Eh      6.78 kcal/mol
Translational entropy             ...      0.01783351 Eh     11.19 kcal/mol
-----------------------------------------------------------------------
Final entropy term                ...      0.03003158 Eh     18.85 kcal/mol

In case the symmetry of your molecule has not been determined correctly
or in case you have a reason to use a different symmetry number we print 
out the resulting rotational entropy values for sn=1,12:

 non-linear molecules -----------------------------------
|  sn= 1 | S(rot)=       0.01080718 Eh      6.78 kcal/mol|
|  sn= 2 | S(rot)=       0.01015272 Eh      6.37 kcal/mol|
|  sn= 3 | S(rot)=       0.00976989 Eh      6.13 kcal/mol|
|  sn= 4 | S(rot)=       0.00949827 Eh      5.96 kcal/mol|
|  sn= 5 | S(rot)=       0.00928758 Eh      5.83 kcal/mol|
|  sn= 6 | S(rot)=       0.00911544 Eh      5.72 kcal/mol|
|  sn= 7 | S(rot)=       0.00896989 Eh      5.63 kcal/mol|
|  sn= 8 | S(rot)=       0.00884381 Eh      5.55 kcal/mol|
|  sn= 9 | S(rot)=       0.00873260 Eh      5.48 kcal/mol|
|  sn=10 | S(rot)=       0.00863312 Eh      5.42 kcal/mol|
|  sn=11 | S(rot)=       0.00854313 Eh      5.36 kcal/mol|
|  sn=12 | S(rot)=       0.00846098 Eh      5.31 kcal/mol|
 linear molecules ---------------------------------------
|  Dinfh | S(rot)=       0.00666426 Eh      4.18 kcal/mol|
|  Cinfv | S(rot)=       0.00731871 Eh      4.59 kcal/mol|
 --------------------------------------------------------


-------------------
GIBBS FREE ENERGY
-------------------

The Gibbs free energy is G = H - T*S

Total enthalpy                    ...   -178.83416056 Eh 
Total entropy correction          ...     -0.03003158 Eh    -18.85 kcal/mol
-----------------------------------------------------------------------
Final Gibbs free energy         ...   -178.86419214 Eh

For completeness - the Gibbs free energy minus the electronic energy
G-E(el)                           ...      0.03419284 Eh     21.46 kcal/mol


Maximum memory used throughout the entire PROP-calculation: 24.5 MB

--------------------------------
SUGGESTED CITATIONS FOR THIS RUN
--------------------------------

Below you find a list of papers that are relevant to this ORCA run
We neither can nor want to force you to cite these papers, but we appreciate if you do
You receive ORCA, which is the product of decades of hard work by many enthusiastic individuals, for free
The only thing we kindly ask in return is that you cite our papers,
We deeply appreciate it, if you show your appreciation for ORCA by not just citing the generic ORCA reference.

Please note that relegating all ORCA citations to the supporting information does *not* help us.
SI sections are not indexed - citations you put there will not count into any citation statistics
But we need these citations in order to attract the funding resources that allow us to do what we are doing

Therefore, if you are a happy ORCA user, please consider citing a few of the papers listed below in the main body of your paper

In addition to the list printed below, the program has created the file ethene_HF_TS.bibtex that contains the list in bibtex format
You can import this file easily into all common literature databanks and citation aid programs


List of essential papers. We consider these as the minimum necessary citations

  1. Neese,F.
     Software update: the ORCA program system, version 5.0
     WIRES Comput. Molec. Sci., 2022 12(1)e1606
     doi.org/10.1002/wcms.1606

List of papers to cite with high priority. The work reported in these papers was absolutely
necessary for this run to complete.
Our perspective: the developers of density functionals and basis sets usually get cited in chemistry papers
Good! But without the algorithms to do something with them, the functionals or basis sets would not do anything.
Hence, in our opinion, the algorithm design and method developments papers are equally worthy of getting cited

  1. Neese,F.
     An improvement of the resolution of the identity approximation for the formation of the Coulomb matrix
     J. Comp. Chem., 2003 24(14)1740-1747
     doi.org/10.1002/jcc.10318
  2. Bykov,D.; Petrenko,T.; Izsak,R.; Kossmann,S.; Becker,U.; Valeev,E.; Neese,F.
     Efficient implementation of the analytic second derivatives of Hartree-Fock and hybrid DFT energies: a detailed analysis of different approximations
     Molec. Phys., 2015 113 1961-1977
     doi.org/10.1080/00268976.2015.1025114
  3. Neese,F.
     The SHARK Integral Generation and Digestion System
     J. Comp. Chem., 2022  1-16
     doi.org/10.1002/jcc.26942
  4. Grimme,S.; Antony,J.; Ehrlich,S.; Krieg,H.
     A consistent and accurate ab initio parametrization of density functional dispersion correction (DFT-D) for the 94 elements H-Pu
     J. Chem. Phys., 2010 132 154104-XXXX
     doi.org/10.1063/1.3382344
  5. Grimme,S.; Ehrlich,S.; Goerigk,L.
     Effect of the damping function in dispersion corrected density functional theory
     J. Comput. Chem., 2011 32(7)1456-1465
     doi.org/10.1002/jcc.21759

List of suggested additional citations. These are papers that are important in the 'surrounding' of 
of this run, or papers that preceded the highly important papers. If you like your results we are grateful for a citation.

  1. Neese,F.
     The ORCA program system
     WIRES Comput. Molec. Sci., 2012 2(1)73-78
     doi.org/10.1002/wcms.81
  2. Neese,F.
     Software update: the ORCA program system, version 4.0
     WIRES Comput. Molec. Sci., 2018 8(1)1-6
     doi.org/10.1002/wcms.1327
  3. Neese,F.; Wennmohs,F.; Becker,U.; Riplinger,C.
     The ORCA quantum chemistry program package
     J. Chem. Phys., 2020 152 Art. No. L224108
     doi.org/10.1063/5.0004608

List of optional additional citations

  1. Neese,F.
     Approximate second-order SCF convergence for spin unrestricted wavefunctions
     Chem. Phys. Lett., 2000 325(1-3)93-98
     doi.org/10.1016/s0009-2614(00)00662-x

Timings for individual modules:

Sum of individual times          ...       17.646 sec (=   0.294 min)
Startup calculation              ...        3.584 sec (=   0.060 min)  20.3 %
SCF iterations                   ...        7.159 sec (=   0.119 min)  40.6 %
Property integrals               ...        2.609 sec (=   0.043 min)  14.8 %
SCF Response                     ...        0.528 sec (=   0.009 min)   3.0 %
Property calculations            ...        0.667 sec (=   0.011 min)   3.8 %
SCF Gradient evaluation          ...        3.074 sec (=   0.051 min)  17.4 %
Geometry relaxation              ...        0.025 sec (=   0.000 min)   0.1 %
                             ****ORCA TERMINATED NORMALLY****
TOTAL RUN TIME: 0 days 0 hours 0 minutes 22 seconds 325 msec
