
                                 *****************
                                 * O   R   C   A *
                                 *****************

                                            #,                                       
                                            ###                                      
                                            ####                                     
                                            #####                                    
                                            ######                                   
                                           ########,                                 
                                     ,,################,,,,,                         
                               ,,#################################,,                 
                          ,,##########################################,,             
                       ,#########################################, ''#####,          
                    ,#############################################,,   '####,        
                  ,##################################################,,,,####,       
                ,###########''''           ''''###############################       
              ,#####''   ,,,,##########,,,,          '''####'''          '####       
            ,##' ,,,,###########################,,,                        '##       
           ' ,,###''''                  '''############,,,                           
         ,,##''                                '''############,,,,        ,,,,,,###''
      ,#''                                            '''#######################'''  
     '                                                          ''''####''''         
             ,#######,   #######,   ,#######,      ##                                
            ,#'     '#,  ##    ##  ,#'     '#,    #''#        ,####,    ,#,          
            ##       ##  ##   ,#'  ##            #'  '#       #'       ,# #          
            ##       ##  #######   ##           ,######,      #####,      #          
            '#,     ,#'  ##    ##  '#,     ,#' ,#      #,     #,   #      #          
             '#######'   ##     ##  '#######'  #'      '#     '####' #    #          



                #########################################################
                #                        -***-                          #
                #          Department of theory and spectroscopy        #
                #                                                       #
                #                      Frank Neese                      #
                #                                                       #
                #     Directorship, Architecture, Infrastructure        #
                #                    SHARK, DRIVERS                     #
                #        Core code/Algorithms in most modules           #
                #                                                       #
                #        Max Planck Institute fuer Kohlenforschung      #
                #                Kaiser Wilhelm Platz 1                 #
                #                 D-45470 Muelheim/Ruhr                 #
                #                      Germany                          #
                #                                                       #
                #                  All rights reserved                  #
                #                        -***-                          #
                #########################################################


                         Program Version 6.1.1  -  RELEASE   -


 With contributions from (in alphabetic order):
[Max-Planck-Institut fuer Kohlenforschung]                               
  Daniel Aravena         : Magnetic Suceptibility                        
  Michael Atanasov       : Ab Initio Ligand Field Theory (pilot matlab implementation)
  Alexander A. Auer      : GIAO ZORA, VPT2 properties, NMR spectrum      
  Ute Becker             : All parallelization in ORCA, NUMFREQ, NUMCALC 
  Giovanni Bistoni       : ED, misc. LED, open-shell LED, HFLD           
  Dmytro Bykov           : pre 5.0 version of the SCF Hessian            
  Marcos Casanova-P谩ez   : Triplet and SCS-CIS(D). UHF-(DLPNO)-IP/EA/STEOM-CCSD. UHF-CVS-IP/STEOM-CCSD   
  Vijay G. Chilkuri      : MRCI spin determinant printing, contributions to CSF-ICE 
  Pauline Colinet        : FMM embedding                                 
  Dipayan Datta          : RHF DLPNO-CCSD density                        
  Achintya Kumar Dutta   : EOM-CC, STEOM-CC                              
  Nicolas Foglia         : Exact transition moments, OPA infrastructure, MCD improvements    
  Dmitry Ganyushin       : Spin-Orbit,Spin-Spin,Magnetic field MRCI      
  Miquel Garcia-Rates    : C-PCM and meta-GGA Hessian, CCSD/C-PCM, Gaussian charge scheme 
  Tiago L. C. Gouveia    : GS-ROHF, GS-ROCIS                             
  Yang Guo               : DLPNO-NEVPT2, F12-NEVPT2, CIM, IAO-localization        
  Andreas Hansen         : Spin unrestricted coupled pair/coupled cluster methods 
  Ingolf Harden          : AUTO-CI MPn and infrastructure                
  Benjamin Helmich-Paris : MC-RPA, TRAH-(SCF,CASSCF), AVAS, COSX integrals, SCF dyn. polar., MC-PDFT, srDFT 
  Lee Huntington         : MR-EOM, pCC                                   
  Robert Izsak           : Overlap fitted RIJCOSX, COSX-SCS-MP3, EOM     
  Riya Kayal             : Wick's Theorem for AUTO-CI, AUTO-CI UHF-CCSDT 
  Emily Kempfer          : AUTO-CI RHF CISDT and CCSDT, approximate NEVPT4
  Christian Kollmar      : KDIIS, OOCD, Brueckner-CCSD(T), CCSD density, CASPT2, CASPT2-K, improved NEVPT2 
  Axel Koslowski         : Symmetry handling                             
  Simone Kossmann        : meta-GGA functionals, TD-DFT gradient, OOMP2, (MP2 Hessian; deprecated post 5.0) 
  Lucas Lang             : DCDCAS, Hyperfine gauge corrections, ICE-SOC+SSC
  Marvin Lechner         : AUTO-CI (C++ implementation), FIC-MRCC        
  Spencer Leger          : CASSCF response                               
  Dagmar Lenk            : GEPOL surface, SMD, ORCA-2-JSON               
  Dimitrios Liakos       : Extrapolation schemes; Compound Job, Property file
  Dimitrios Manganas     : Further ROCIS development; embedding schemes. LFT, Crystal Embedding 
  Dimitrios Pantazis     : SARC Basis sets                               
  Anastasios Papadopoulos: AUTO-CI, single reference methods and gradients 
  Taras Petrenko         : pre 6.0 DFT Hessian and TD-DFT gradient,  ECA, NRVS 
  Petra Pikulova         : Analytic Raman intensities                    
  Peter Pinski           : DLPNO-MP2, DLPNO-MP2 Gradient                 
  Shashank Vittal Rao    : ES-AILFT, MagRelax                            
  Christoph Reimann      : Effective Core Potentials                     
  Marius Retegan         : Local ZFS, SOC                                
  Christoph Riplinger    : Optimizer, TS searches, QM/MM, DLPNO-CCSD(T), (RO)-DLPNO pert. Triples 
  Michael Roemelt        : Original ROCIS implementation, recursive CI coupling coefficients
  Masaaki Saitow         : Open-shell DLPNO-CCSD energy and density      
  Barbara Sandhoefer     : DKH picture change effects                    
  Yorick L. A. Schmerwitz: GMF and freeze-and-release deltaSCF, NEB S-IDPP initial path                    
  Kantharuban Sivalingam : CASSCF convergence/infrastructure, NEVPT2, NEVPT3, NEVPT4(SD), FIC-MRCI and CEPA variants
  Bernardo de Souza      : ESD, SOC TD-DFT                               
  Georgi L. Stoychev     : AutoAux, RI-MP2 NMR, DLPNO-MP2 response, X2C  
  Van Anh Tran           : RI-MP2 g-tensors                              
  Willem Van den Heuvel  : Paramagnetic NMR                              
  Zikuan Wang            : NOTCH, Electric field optimization            
  Frank Wennmohs         : Technical directorship and infrastructure     
  Hang Xu                : AUTO-CI-Response properties                   
                                                                         
[FACCTs GmbH]                                                            
  Markus Bursch, Nicolas Foglia, Miquel Garcia-Rates, Ingolf Harden, Hagen Neugebauer, Anastasios Papadopoulos, 
  Christoph Riplinger, Bernardo de Souza, Georgi L. Stoychev                                                    
                                                                 
  APM, various basis sets, CI-OPT, improved COSX, DLPNO-Multilevel,           
  DOCKER, DRACO, updates on ESD, Fragmentator, GOAT, IRC, LR-CPCM, L-BFGS, MBIS, meta-GGA TD-DFT gradient, ML-optimized integration grids, 
  MM, NACMEs, nearIR, NEB, NEB-TS, NL-DFT gradient (VV10), 2- and 3-layer-ONIOM, interface openCOSMO-RS, QMMM,   
  Crystal-QMMM, RESP, rigid body optimization, SF, symmetry and pop. for TD-DFT, various functionals, SOLVATOR                                   
                                                                         
[Other institutions]                                                     
  V. Asgeirsson          : NEB                                           
  Christoph Bannwarth    : sTDA-DFT, sTD-DFT, PBEh-3c, B97-3c, D3        
  Giovanni Bistoni       : ETS/NOCV, ADLD/ADEX, COVALED                  
  Martin Brehm           : Molecular dynamics                            
  Ronald Cardenas        : ETS/NOCV                                      
  Martina Colucci        : COVALED                                       
  Sebastian Ehlert       : rSCAN, r2SCAN, r2SCAN-3c, D4, dhf basis sets  
  Marvin Friede          : D4 for Fr, Ra, Ac-Lr                          
  Lars Goerigk           : TD-DFT with DH, B97 family of functionals     
  Stefan Grimme          : VdW corrections, initial TS optimization, DFT functionals, gCP, sTDA/sTD-DF 
  Waldemar Hujo          : DFT-NL                                        
  H. Jonsson             : NEB                                           
  Holger Kruse           : gCP                                           
  Marcel Mueller         : wB97X-3c, vDZP basis set                      
  Hagen Neugebauer       : wr2SCAN, Native XTB                           
  Gianluca Regni         : ADLD/ADEX                                     
  Tobias Risthaus        : pre 6.0 range-separated hybrid DFT and stability analysis
  Lukas Wittmann         : regularized MP2, r2SCAN double-hybrids, wr2SCAN        
                                                                         
We gratefully acknowledge several colleagues who have allowed us to      
interface, adapt or use parts of their codes:                            
  Ed Valeev, F. Pavosevic, A. Kumar             : LibInt (2-el integral package), F12 methods 
  Garnet Chan, S. Sharma, J. Yang, R. Olivares  : DMRG                   
  Ulf Ekstrom                                   : XCFun DFT Library      
  Mihaly Kallay                                 : mrcc  (arbitrary order and MRCC methods)
  Frank Weinhold                                : gennbo (NPA and NBO analysis)           
  Simon Mueller                                 : openCOSMO-RS                            
  Christopher J. Cramer and Donald G. Truhlar   : smd solvation model                     
  S Lehtola, MJT Oliveira, MAL Marques          : LibXC Library                           
  Liviu Ungur et al                             : ANISO software                          


 Your calculation uses the libint2 library for the computation of 2-el integrals
 For citations please refer to: http://libint.valeyev.net

 Your ORCA version has been built with support for libXC version: 7.0.0
 For citations please refer to: https://libxc.gitlab.io

 This ORCA versions uses:
   CBLAS   interface :  Fast vector & matrix operations
   LAPACKE interface :  Fast linear algebra routines
   Shared memory     :  Shared parallel matrices


  ***********************************
  * Starting time: Wed Jun 24 14:08:13 2026
  * Host name:     DESKTOP-2NI9PHF
  * Process ID:    45908
  * Working dir.:  D:\xbt-windows\xtbridge\example\TS
  ***********************************

NOTE: MaxCore=4096 MB was set to SCF,MP2,MDCI,CIPSI,MRCI,RASCI and CIS
      => If you want to overwrite this, your respective input block should be placed after the MaxCore statement


***************************************
The coordinates will be read from file: _qst2-test_orca.xyz
***************************************


Your calculation utilizes the semiempirical GFN2-xTB method
Please cite in your paper:
Bannwarth, C.; Ehlert S.; Grimme, S. J. Chem. Theory Comput. 2019, 15, 1652.
   

Your calculation utilizes a Nudged-Elastic-Band implementation
by V. 脕sgeirsson, C. Riplinger & H. J贸nsson
Please cite in your paper:
脕sgeirsson, V.; Birgisson, B. O.; Bjornsson, R.; Becker, U.; Neese, F.; Riplinger, R.;
J贸nsson H. J. Chem. Theory Comput. 2021, 17, 4929-4945
   

================================================================================

================================================================================
                                        WARNINGS
                       Please study these warnings very carefully!
================================================================================


WARNING: Geometry Optimization
  ===> : Switching off AutoStart
         For restart on a previous wavefunction, please use MOREAD

WARNING: Found dipole moment calculation with XTB calculation
  ===> : Switching off dipole moment calculation

Environment variable XTBEXE for xtb has been set!

================================================================================
                                       INPUT FILE
================================================================================
NAME = _qst2-test_orca.inp
|  1> ! XTB2 NEB-TS

|  2> 

|  3> %pal nprocs 14 end

|  4> 

|  5> %maxcore 4096

|  6> 

|  7> %neb

|  8>  Product "_product_orca.xyz"

|  9>  NImages 16

| 10>  Free_End true

| 11> end

| 12> 

| 13> * xyzfile 0 1 _qst2-test_orca.xyz

| 14> 
| 15>                          ****END OF INPUT****
================================================================================


--------------------------------------------------------------------------------
                        Nudged Elastic Band Calculation
--------------------------------------------------------------------------------

Warning: End points are propagated according to the atomic force perp. to the path:
         the end points need to be placed on opposite sides of the potential energy barrier
Number of images (incl. end points)     ....  16
Number of intermediate images           ....  14
Number of optimized images              ....  16
Optimization of end points before NEB   ....  NO
Use existing gbw files for MO input     ....  NO
Number of atoms                         ....  16
Number of (active) degrees of freedom   ....  48
Constrained atoms                       ....  None

-----------------------------------------
  REACTANT (ANGSTROEM)
-----------------------------------------
C     -0.142896     1.350037    -1.083296 
H      0.409447     0.452246    -0.899479 
H     -1.211348     1.318302    -1.131302 
C      0.506132     2.527182    -1.255513 
H     -0.046212     3.424973    -1.439330 
H      1.574583     2.558917    -1.207506 
C      1.411635     2.571843    -3.084232 
H      0.343028     2.519259    -3.069577 
H      1.896988     3.510081    -3.254648 
C      2.152460     1.454203    -2.887693 
H      3.221067     1.506787    -2.902348 
C      1.453914     0.103842    -2.642421 
H      2.038826    -0.776545    -2.475999 
C      0.100922     0.026744    -2.636638 
H     -0.489303     0.903693    -2.802457 
H     -0.378757    -0.914306    -2.465666 

-----------------------------------------
  PRODUCT (ANGSTROEM)
-----------------------------------------
C      0.839632     1.462930    -0.801081 
H      1.709481     1.593690    -0.191849 
H     -0.026774     1.420080    -0.174659 
C      0.786340     2.635679    -1.809642 
H      0.334326     3.478729    -1.330217 
H      1.777714     2.887710    -2.123582 
C      0.056799     2.199377    -3.104625 
H     -0.912387     1.792661    -2.904225 
H     -0.052567     3.036242    -3.762346 
C      1.031616     1.148943    -3.748452 
H      1.198408     1.089821    -4.803718 
C      1.670904     0.346668    -2.859435 
H      2.626094    -0.108038    -3.019914 
C      0.833179     0.179487    -1.617169 
H     -0.170202     0.033539    -1.958967 
H      1.137921    -0.660262    -1.028225 



----------------------
NEB settings
----------------------
Method type                             ....  climbing image
Threshold for climbing image            ....  2.00e-02 Eh/Bohr 
Free endpoints                          ....  on 
Type of end points                      ....  perp. 
Tangent type                            ....  improved 
Number of intermediate images           ....  14 
Number of images free to move           ....  16 
Spring type for image distribution      ....  distance between adjacent images 
Spring constant                         ....  energy weighted (0.0100 -to- 0.1000) Eh/Bohr^2 
Spring force perp. to the path          ....  none 
Generation of initial path              ....  image dependent pair potential 
Initial path via TS guess               ....  off 

Minimization of RMSD: Rotation          ....  always 
Minimization of RMSD: Translation type  ....  centroid 
Center fixed to origin                  ....  true 
Remove external force                   ....  true 

Reparametrization of the path           ....  off 
Convergence thresholds:
Convergence monitored for               ....  all images
Scaling factor                          ....  10.00

Convergence parameters for regular images:
               Max(|Fp|)                ....  2.00e-02 Eh/Bohr
               RMS(Fp)                  ....  1.00e-02 Eh/Bohr

Convergence parameters for climbing image:
               Max(|F|)                 ....  2.00e-03 Eh/Bohr
               RMS(F)                   ....  1.00e-03 Eh/Bohr
Optimization method:
Method                                  ....  L-BFGS
Max. iterations                         ....  500 
Step size                               ....  1.00 
Maximum allowed step size               ....  0.10 Bohr

LBFGS parameters: 
               Memory                   ....  20 
               Initial step size        ....  0.0010 
               Estimate curvature       ....  YES 
               Reset on maxmove         ....  YES 
               Reparam. on reset        ....  NO 
Generation of  the initial path:
Two fragments detected in initial structure. Preparing initial structure... Done
Minimize RMSD between reactant and product configurations     .... done
       RMSD before minimization         ....  1.6280 Bohr
       RMSD after minimization          ....  0.5210 Bohr
Performing linear interpolation         ....  done
Generating initial path 1 out of 129 -> Success!
Displacement along initial path:              3.6641 Bohr
Writing initial trajectory to file      ....  _qst2-test_orca_initial_path_trj.xyz



----------------------
NEB OPTIMIZATION      
----------------------

Following output files will be written:
Energy profile during opt. written to    ....  _qst2-test_orca.interp
Optimization log-file                    ....  _qst2-test_orca.NEB.log
Current trajectory will be written to    ....  _qst2-test_orca_MEP_trj.xyz
       and to allxyz file                ....  _qst2-test_orca_MEP.allxyz
       and individual images to xyz file ....  _qst2-test_orca_im{NIm}.xyz
Trajectory history will be written to    ....  _qst2-test_orca_MEP_ALL_trj.xyz
Converged CI will be written to          ....  _qst2-test_orca_NEB-CI_converged.xyz
Converged TS will be written to          ....  _qst2-test_orca_NEB-TS_converged.xyz



Starting iterations:

Optim.  Iteration  HEI  E(HEI)-E(0)  max(|Fp|)   RMS(Fp)    dS
Switch-on CI threshold               0.020000 
   LBFGS     0      0    0.000000    0.068014   0.019657  3.6641       
   LBFGS     1      0    0.000000    0.041524   0.012271  3.7122       
   LBFGS     2      0    0.000000    0.048439   0.011507  3.8399       
   LBFGS     3      0    0.000000    0.029815   0.010668  4.0200       
   LBFGS     4      0    0.000000    0.038851   0.008894  4.0472       
   LBFGS     5      0    0.000000    0.022382   0.007417  4.1229       
   LBFGS     6      0    0.000000    0.020009   0.006360  4.3287       
   LBFGS     7      0    0.000000    0.023003   0.005856  4.4065       
   LBFGS     8      0    0.000000    0.014817   0.004575  4.4733       
   LBFGS     9      0    0.000000    0.020060   0.005410  4.6763       
   LBFGS    10      0    0.000000    0.016318   0.003626  4.6766       
   LBFGS    11      0    0.000000    0.011399   0.002617  4.6815       
   LBFGS    12      0    0.000000    0.012953   0.003351  4.7276       
   LBFGS    13      1    0.000363    0.024419   0.004460  4.8267       
   LBFGS    14      1    0.000532    0.027452   0.003224  4.8409       
   LBFGS    15      1    0.000615    0.007553   0.001654  4.8490       

Image  1 will be converted to a climbing image in the next iteration (max(|Fp|) < 0.0200) 

Optim.  Iteration  CI   E(CI)-E(0)   max(|Fp|)   RMS(Fp)    dS     max(|FCI|)   RMS(FCI)
Convergence thresholds               0.020000   0.010000            0.002000    0.001000 
   LBFGS    16      1    0.000694    0.007060   0.001571  4.8562    0.006773    0.001970       
   LBFGS    17      1    0.001071    0.013063   0.002580  4.8980    0.005285    0.002056       
   LBFGS    18      1    0.001481    0.019032   0.002655  5.0722    0.003891    0.001665       
   LBFGS    19      1    0.001665    0.048554   0.005618  5.4484    0.004125    0.001570       
   LBFGS    20      3    0.002908    0.029231   0.003722  5.7046    0.006551    0.002809       
   LBFGS    21      3    0.002521    0.013215   0.001435  5.8928    0.005300    0.001982       
   LBFGS    22      3    0.002343    0.043202   0.003041  5.7799    0.006654    0.002303       
   LBFGS    23      3    0.002191    0.045273   0.003474  5.6986    0.006797    0.002562       
   LBFGS    24      3    0.001818    0.039412   0.003123  5.6756    0.007155    0.002643       
   LBFGS    25      2    0.004261    0.036154   0.002562  5.6637    0.003692    0.001390       
   LBFGS    26      2    0.004238    0.013127   0.001264  5.6421    0.003607    0.001360       
Warning: maximum angle between images (-334985345 - 2 - 3): 0.00
   LBFGS    27      2    0.004103    0.016322   0.001846  5.5862    0.003789    0.001612       
   LBFGS    28      2    0.003942    0.021123   0.001680  5.5585    0.003923    0.001478       
   LBFGS    29      2    0.003299    0.014511   0.001687  5.5670    0.004254    0.001467       
   LBFGS    30      4    0.003658    0.027179   0.002832  5.5867    0.008655    0.002243       
   LBFGS    31      4    0.003563    0.015491   0.002820  5.5881    0.004926    0.001469       
   LBFGS    32      4    0.003513    0.014196   0.001564  5.5284    0.002374    0.000747       
   LBFGS    33      4    0.003513    0.018901   0.002476  5.4781    0.003725    0.001218       
   LBFGS    34      4    0.003514    0.017796   0.002697  5.4194    0.004832    0.001384       
   LBFGS    35      5    0.003953    0.026902   0.002471  5.3288    0.023872    0.006581       
   LBFGS    36      5    0.002652    0.008762   0.001142  5.2163    0.008904    0.002530       
   LBFGS    37      5    0.001880    0.005230   0.000987  5.0115    0.015616    0.005147       
   LBFGS    38      5    0.003112    0.007914   0.001338  4.9676    0.029256    0.007318       
   LBFGS    39      5    0.003759    0.008170   0.001214  4.9420    0.035105    0.008604       
   LBFGS    40      5    0.004377    0.009100   0.001403  4.9402    0.043180    0.010478       
   LBFGS    41      5    0.000480    0.015394   0.001487  4.8944    0.013741    0.005177       
   LBFGS    42      5    0.000742    0.003104   0.000562  4.8863    0.012405    0.003878       
   LBFGS    43      5    0.001799    0.010001   0.000961  4.8823    0.009898    0.003374       
   LBFGS    44      5    0.002971    0.010039   0.001040  4.8803    0.007249    0.002621       
   LBFGS    45      5    0.004131    0.008631   0.000982  4.9472    0.009765    0.002642       
   LBFGS    46      5    0.004347    0.006866   0.001126  5.4555    0.017979    0.005495       
   LBFGS    47      5    0.004148    0.011974   0.001407  5.4442    0.020408    0.005392       
   LBFGS    48      5    0.003895    0.005864   0.000760  5.4325    0.012816    0.004230       
   LBFGS    49      5    0.003551    0.004273   0.000711  5.4244    0.008171    0.002250       
Warning: maximum angle between images (-822588903 - 4 - 5): 0.00
   LBFGS    50      5    0.004661    0.015428   0.001996  5.4314    0.033220    0.008234       
   LBFGS    51      5    0.009673    0.028586   0.003818  5.5297    0.072856    0.018848       
   LBFGS    52      5    0.003478    0.009164   0.001472  5.5558    0.015818    0.005037       
   LBFGS    53      5    0.003075    0.007364   0.001121  5.5805    0.015750    0.003685       
   LBFGS    54      5    0.002793    0.006369   0.000780  5.6693    0.006320    0.001988       
   LBFGS    55      4    0.004530    0.010527   0.001568  5.7980    0.003617    0.001218       
   LBFGS    56      4    0.004427    0.005442   0.000721  5.8348    0.004895    0.001390       
   LBFGS    57      4    0.003542    0.014498   0.001733  5.9750    0.009396    0.002668       
   LBFGS    58      4    0.003533    0.011030   0.001308  5.9467    0.008928    0.002570       
   LBFGS    59      4    0.003583    0.009241   0.001079  5.9241    0.008519    0.002443       
Warning: maximum angle between images (1277725786 - 4 - 5): 0.00
   LBFGS    60      6    0.004746    0.008137   0.001009  5.9047    0.003438    0.001046       
   LBFGS    61      6    0.004639    0.008711   0.001368  6.1828    0.003327    0.001053       
   LBFGS    62      6    0.004639    0.008711   0.001368  6.1828    0.003327    0.001053       
   LBFGS    63      6    0.003442    0.033744   0.003302  6.2873    0.006338    0.001576       
   LBFGS    64      6    0.004689    0.013054   0.001914  6.4049    0.001945    0.000605       

                                .--------------------.
          ----------------------| CI-NEB convergence |-------------------------
          Item                value                   Tolerance       Converged
          ---------------------------------------------------------------------
          RMS(Fp)             0.0019140883            0.0100000000      YES
          MAX(|Fp|)           0.0130542193            0.0200000000      YES
          RMS(FCI)            0.0006048772            0.0010000000      YES
          MAX(|FCI|)          0.0019446820            0.0020000000      YES
          ---------------------------------------------------------------------

The elastic band and climbing image have converged successfully to a MEP in 64 iterations!


                    *********************H U R R A Y*********************
                    ***        THE NEB OPTIMIZATION HAS CONVERGED     ***
                    *****************************************************



---------------------------------------------------------------
                         PATH SUMMARY              
---------------------------------------------------------------
All forces in Eh/Bohr.

Image Dist.(Ang.)    E(Eh)   dE(kcal/mol)  max(|Fp|)  RMS(Fp)
  0     0.000     -17.81694      0.00       0.01094   0.00270
  1     0.180     -17.81435      1.63       0.01305   0.00319
  2     0.293     -17.81291      2.53       0.00149   0.00055
  3     0.419     -17.81229      2.92       0.00034   0.00016
  4     0.607     -17.81380      1.97       0.00738   0.00326
  5     0.981     -17.81527      1.05       0.00498   0.00173
  6     1.211     -17.81225      2.94       0.00112   0.00046 <= CI
  7     1.471     -17.82129     -2.73       0.00782   0.00330
  8     1.885     -17.89387    -48.27       0.01142   0.00420
  9     2.413     -17.92423    -67.32       0.00383   0.00095
 10     2.636     -17.92438    -67.42       0.00304   0.00074
 11     2.795     -17.92437    -67.41       0.00235   0.00060
 12     2.940     -17.92433    -67.39       0.00174   0.00048
 13     3.085     -17.92428    -67.35       0.00119   0.00038
 14     3.234     -17.92421    -67.31       0.00095   0.00034
 15     3.389     -17.92414    -67.27       0.00104   0.00033

Note that free-end NEB was used and hence the following
 dE values do not report the correct barrier height.

Straight line distance between images along the path:
        D( 0- 1) =   0.1804 Ang.
        D( 1- 2) =   0.1124 Ang.
        D( 2- 3) =   0.1259 Ang.
        D( 3- 4) =   0.1882 Ang.
        D( 4- 5) =   0.3736 Ang.
        D( 5- 6) =   0.2301 Ang.
        D( 6- 7) =   0.2602 Ang.
        D( 7- 8) =   0.4139 Ang.
        D( 8- 9) =   0.5286 Ang.
        D( 9-10) =   0.2222 Ang.
        D(10-11) =   0.1594 Ang.
        D(11-12) =   0.1449 Ang.
        D(12-13) =   0.1449 Ang.
        D(13-14) =   0.1495 Ang.
        D(14-15) =   0.1550 Ang.

---------------------------------------------------------------
               INFORMATION ABOUT SADDLE POINT     
---------------------------------------------------------------

Climbing image                            ....  6 
Energy                                    ....  -17.81225481 Eh
Max. abs. force                           ....  1.9447e-03 Eh/Bohr

-----------------------------------------
  SADDLE POINT (ANGSTROEM)
-----------------------------------------
C     -0.939858    -0.024263     1.345513 
H     -0.469620    -0.809938     1.909419 
H     -1.996380    -0.128699     1.175407 
C     -0.307372     1.145601     1.126717 
H     -0.848373     2.014487     0.794808 
H      0.675699     1.321144     1.528777 
C      0.633762     1.123557    -0.998030 
H     -0.382740     1.147011    -1.344188 
H      1.158820     2.064064    -1.042367 
C      1.311816    -0.041287    -0.886968 
H      2.383992    -0.014374    -0.745878 
C      0.660260    -1.282121    -0.666035 
H      1.280289    -2.121036    -0.378265 
C     -0.681041    -1.392058    -0.554813 
H     -1.343334    -0.680073    -1.010946 
H     -1.135920    -2.322016    -0.253150 

-----------------------------------------
  FORCES (Eh/Bohr)
-----------------------------------------
C      0.000328     0.000924     0.000324 
H      0.000257    -0.000341    -0.000102 
H     -0.000609     0.000027    -0.000269 
C     -0.001048    -0.000146     0.001945 
H      0.000117     0.000172    -0.000404 
H     -0.000045    -0.000002    -0.000765 
C      0.000953    -0.000060    -0.001672 
H     -0.000548     0.000284     0.000728 
H      0.000240    -0.000240     0.000076 
C     -0.000215     0.000675     0.000421 
H      0.000247    -0.000444    -0.000213 
C      0.000712    -0.000627     0.000518 
H      0.000500     0.000186    -0.000074 
C     -0.000984    -0.000773    -0.000649 
H     -0.000334     0.000325     0.000608 
H      0.000429     0.000039    -0.000472 

-----------------------------------------
  UNIT TANGENT
-----------------------------------------
C      0.116879    -0.209222    -0.369946 
H      0.038329     0.005476    -0.006525 
H      0.064622    -0.028655    -0.089883 
C      0.185163    -0.096275    -0.425208 
H      0.023044    -0.076211    -0.104358 
H      0.003632    -0.024936     0.013831 
C     -0.162128     0.016299     0.383742 
H     -0.011859    -0.036061    -0.091293 
H     -0.120664     0.003712     0.253631 
C     -0.006777    -0.040899     0.026916 
H     -0.005646     0.053571    -0.033079 
C      0.025454     0.046380     0.016595 
H     -0.065556    -0.033718    -0.039802 
C     -0.049852     0.230401     0.332060 
H      0.006752     0.008243    -0.106579 
H     -0.041394     0.181894     0.239898 
 => Unit tangent is an approximation to the TS mode at the saddle point

Next a TS optimization is performed on the CI from the NEB run.

         *************************************************************
         *                       TS OPTIMIZATION                     *
         *************************************************************


Following output files will be written:
Converged TS will be written to          ....  _qst2-test_orca_NEB-TS_converged.xyz
                                         ....  _qst2-test_orca.xyz
Current trajectory will be written to    ....  _qst2-test_orca_trj.xyz
Initial Hessian will be stored in        ....  _qst2-test_orca.appr.hess
 (Almloef) Geometry optimization settings:
Update method            Update   .... Bofill
Choice of coordinates    CoordSys .... (2022) Redundant Internals
Initial Hessian          InHess   .... Read
Max. no of cycles        MaxIter  .... 50

Convergence Tolerances:
Energy Change            TolE     ....  5.0000e-06 Eh
Max. Gradient            TolMAXG  ....  3.0000e-04 Eh/bohr
RMS Gradient             TolRMSG  ....  1.0000e-04 Eh/bohr
Max. Displacement        TolMAXD  ....  4.0000e-03 bohr
RMS Displacement         TolRMSD  ....  2.0000e-03 bohr
Strict Convergence                .... False

------------------------------------------------------------------------------
                        ORCA OPTIMIZATION COORDINATE SETUP
------------------------------------------------------------------------------

The optimization will be done in redundant internal coordinates (2022)
Making redundant internal coordinates   ...  (2022 redundants) done
Following TS mode number                ...     0
TS-active-atoms for coordinate setup... 0 3 6 13 
Evaluating the initial hessian          ... (Reading Exact Hessian)...  
InHessName: _qst2-test_orca.appr.hess	The file <_qst2-test_orca.appr.hess> is opened as a .hess file
done
done
Evaluating the coordinates              ...  done
Calculating the B-matrix                .... done
Calculating the G-matrix                .... done
The number of degrees of freedom        ....  164

    -----------------------------------------------------------------
                    Redundant Internal Coordinates


    -----------------------------------------------------------------
         Definition                    Initial Value    d2E/dq (diagonal element)
    -----------------------------------------------------------------
      1. B(H   1,C   0)                  1.0754         0.326944   
      2. B(H   2,C   0)                  1.0752         0.336594   
      3. B(C   3,C   0)                  1.3478         0.426298   
      4. B(H   4,C   3)                  1.0760         0.333824   
      5. B(H   5,C   3)                  1.0765         0.319831   
      6. B(C   6,H   4)                  2.4909         0.020440   
      7. B(C   6,H   5)                  2.5349         0.018208   
      8. B(C   6,C   3)                  2.3240         0.008902   
      9. B(H   7,C   3)                  2.4721         0.021206   
     10. B(H   7,C   6)                  1.0741         0.339748   
     11. B(H   7,H   4)                  2.3547         0.008813   
     12. B(H   7,C   0)                  2.9861         0.035100   
     13. B(H   8,C   6)                  1.0781         0.274473   
     14. B(H   8,H   4)                  2.7215         0.009939   
     15. B(H   8,H   5)                  2.7196         0.005678   
     16. B(H   8,C   3)                  2.7746         0.018753   
     17. B(C   9,C   3)                  2.8435         0.024252   
     18. B(C   9,C   6)                  1.3524         0.266047   
     19. B(C   9,H   5)                  2.8455         0.008980   
     20. B(H  10,C   9)                  1.0818         0.371151   
     21. B(C  11,C   9)                  1.4188         0.222645   
     22. B(C  11,C   6)                  2.4286         0.095262   
     23. B(C  11,C   0)                  2.8616         0.023346   
     24. B(C  11,H   1)                  2.8518         0.009561   
     25. B(H  12,C  11)                  1.0821         0.370588   
     26. B(C  13,H   1)                  2.5409         0.017430   
     27. B(C  13,C  11)                  1.3504         0.272995   
     28. B(C  13,H   2)                  2.5139         0.019885   
     29. B(C  13,C   9)                  2.4303         0.096917   
     30. B(C  13,C   0)                  2.3557         0.008961   
     31. B(H  14,C  13)                  1.0741         0.343648   
     32. B(H  14,C   0)                  2.4791         0.020501   
     33. B(H  14,C   3)                  2.9960         0.035956   
     34. B(H  14,H   2)                  2.3475         0.008634   
     35. B(H  15,C   0)                  2.8060         0.018580   
     36. B(H  15,H   2)                  2.7553         0.009645   
     37. B(H  15,C  13)                  1.0783         0.274433   
     38. B(H  15,H   1)                  2.7216         0.006034   
     39. A(H   1,C   0,H   2)          116.2111         0.018772   
     40. A(C  11,C   0,C  13)           27.9042         0.010344   
     41. A(H   1,C   0,C   3)          120.9368         0.016851   
     42. A(C   3,C   0,C  13)          108.7523         0.006610   
     43. A(H   2,C   0,C  13)           85.6376         0.003630   
     44. A(H   2,C   0,C   3)          121.3155         0.016677   
     45. A(H   1,C   0,C  11)           78.6354         0.003659   
     46. A(H   2,C   0,C  11)          113.2996         0.008321   
     47. A(H   1,C   0,C  13)           87.1774         0.002697   
     48. A(C   3,C   0,C  11)           90.2875         0.007806   
     49. A(H   4,C   3,C   6)           85.9430         0.003911   
     50. A(H   4,C   3,H   5)          116.2741         0.018378   
     51. A(C   0,C   3,C   9)           91.1394         0.007958   
     52. A(H   5,C   3,C   6)           88.4641         0.002826   
     53. A(C   0,C   3,H   5)          120.6275         0.016403   
     54. A(C   0,C   3,C   6)          109.2831         0.006613   
     55. A(H   5,C   3,C   9)           79.1959         0.003685   
     56. A(C   0,C   3,H   4)          121.0001         0.016259   
     57. A(C   6,C   3,C   9)           28.1111         0.010145   
     58. A(H   4,C   3,C   9)          113.8859         0.008791   
     59. A(H   7,C   6,H   8)          115.3805         0.030637   
     60. A(C   3,C   6,C   9)           97.8240         0.007795   
     61. A(C   3,C   6,H   8)          103.0949         0.008469   
     62. A(C   3,C   6,H   7)           84.9048         0.003494   
     63. A(H   8,C   6,C   9)          120.7047         0.020267   
     64. A(H   7,C   6,C   9)          121.3170         0.018934   
     65. A(H  10,C   9,C  11)          117.1687         0.030701   
     66. A(C   6,C   9,C  11)          122.3998         0.021782   
     67. A(C   6,C   9,H  10)          119.0923         0.021815   
     68. A(C   3,C   9,C  11)           89.6144         0.011763   
     69. A(C   3,C   9,H  10)          117.4933         0.007311   
     70. A(C   3,C   9,C   6)           54.0650         0.002595   
     71. A(H  12,C  11,C  13)          118.9532         0.021499   
     72. A(C   9,C  11,C  13)          122.6948         0.021934   
     73. A(C   9,C  11,H  12)          117.1473         0.030411   
     74. A(C   0,C  11,C  13)           54.7242         0.002618   
     75. A(C   0,C  11,H  12)          118.3082         0.006927   
     76. A(C   0,C  11,C   9)           88.9584         0.011845   
     77. A(C   0,C  13,H  15)          103.2224         0.008470   
     78. A(C   0,C  13,H  14)           83.6813         0.003289   
     79. A(C   0,C  13,C  11)           97.3716         0.007961   
     80. A(H  14,C  13,H  15)          115.4917         0.030992   
     81. A(C  11,C  13,H  15)          120.8146         0.020339   
     82. A(C  11,C  13,H  14)          121.5693         0.019204   
     83. D(H   5,C   3,C   0,H   1)     -1.1003         0.006653   
     84. D(C   6,C   3,C   0,H   1)     98.9281         0.006393   
     85. D(C   6,C   3,C   0,H   2)    -95.7452         0.006356   
     86. D(H   4,C   3,C   0,H   1)   -164.0195         0.006945   
     87. D(H   5,C   3,C   0,C  13)    -99.3132         0.006385   
     88. D(H   4,C   3,C   0,C  13)     97.7677         0.006876   
     89. D(C   9,C   3,C   0,H   2)   -117.6681         0.006024   
     90. D(C   6,C   3,C   0,C  13)      0.7152         0.007846   
     91. D(H   5,C   3,C   0,C  11)    -77.9957         0.005423   
     92. D(H   4,C   3,C   0,C  11)    119.0851         0.006230   
     93. D(C   6,C   3,C   0,C  11)     22.0327         0.006445   
     94. D(C   9,C   3,C   0,H   1)     77.0052         0.005722   
     95. D(H   4,C   3,C   0,H   2)      1.3072         0.006796   
     96. D(H   5,C   3,C   0,H   2)    164.2264         0.005699   
     97. D(C   9,C   6,C   3,H   5)     69.6481         0.010050   
     98. D(C   9,C   6,C   3,H   4)   -173.8749         0.009644   
     99. D(H   8,C   6,C   3,C   9)   -124.1344         0.018604   
    100. D(H   8,C   6,C   3,C   0)   -176.5287         0.019268   
    101. D(H   7,C   6,C   3,C   9)    120.9631         0.019272   
    102. D(H   8,C   6,C   3,H   4)     61.9908         0.015717   
    103. D(H   7,C   6,C   3,C   0)     68.5688         0.017290   
    104. D(C   9,C   6,C   3,C   0)    -52.3943         0.009153   
    105. D(H   7,C   6,C   3,H   4)    -52.9118         0.017703   
    106. D(H   7,C   6,C   3,H   5)   -169.3888         0.019486   
    107. D(H   8,C   6,C   3,H   5)    -54.4862         0.017130   
    108. D(C   6,C   9,C   3,H   5)   -107.4171         0.010390   
    109. D(C   6,C   9,C   3,H   4)      6.6845         0.011617   
    110. D(C   6,C   9,C   3,C   0)    131.5884         0.007189   
    111. D(H  10,C   9,C   3,H   4)    114.1271         0.021209   
    112. D(H  10,C   9,C   3,C   0)   -120.9689         0.021290   
    113. D(C   3,C   9,C   6,H   8)    110.3396         0.007917   
    114. D(C  11,C   9,C   6,C   3)     61.9774         0.005492   
    115. D(C  11,C   9,C   6,H   8)    172.3170         0.011487   
    116. D(C  11,C   9,C   6,H   7)    -26.8002         0.011194   
    117. D(H  10,C   9,C   3,H   5)      0.0255         0.020217   
    118. D(H  10,C   9,C   6,H   8)      5.9108         0.008982   
    119. D(C  11,C   9,C   3,C   6)   -131.8100         0.012053   
    120. D(H  10,C   9,C   6,H   7)    166.7936         0.006780   
    121. D(C  11,C   9,C   3,H   5)    120.7730         0.016621   
    122. D(C  11,C   9,C   3,H   4)   -125.1255         0.017169   
    123. D(H  10,C   9,C   6,C   3)   -104.4288         0.003312   
    124. D(C   3,C   9,C   6,H   7)    -88.7776         0.005417   
    125. D(C  11,C   9,C   3,C   0)     -0.2215         0.007766   
    126. D(H  10,C   9,C   3,C   6)    107.4426         0.019837   
    127. D(C   0,C  11,C   9,C   6)    -45.5204         0.001921   
    128. D(C  13,C  11,C   9,C   3)     45.8356         0.001889   
    129. D(C  13,C  11,C   9,H  10)    166.8635         0.006124   
    130. D(H  12,C  11,C   9,C   3)   -121.4757         0.005337   
    131. D(H  12,C  11,C   9,H  10)     -0.4478         0.006542   
    132. D(H  12,C  11,C   9,C   6)   -167.1003         0.006352   
    133. D(C  13,C  11,C   0,C   3)   -132.6454         0.007473   
    134. D(C  13,C  11,C   0,H   2)     -8.0297         0.011618   
    135. D(C  13,C  11,C   0,H   1)    105.7960         0.010392   
    136. D(H  12,C  11,C   0,C  13)   -107.0074         0.019816   
    137. D(H  12,C  11,C   0,C   3)    120.3473         0.021298   
    138. D(H  12,C  11,C   0,H   2)   -115.0371         0.021174   
    139. D(H  12,C  11,C   0,H   1)     -1.2114         0.020110   
    140. D(C  13,C  11,C   9,C   6)      0.2109         0.002807   
    141. D(C   9,C  11,C   0,C  13)    132.4252         0.012083   
    142. D(C   9,C  11,C   0,C   3)     -0.2201         0.007645   
    143. D(C   9,C  11,C   0,H   2)    124.3955         0.017380   
    144. D(C   0,C  11,C   9,H  10)    121.1322         0.005487   
    145. D(C   9,C  11,C   0,H   1)   -121.7788         0.016616   
    146. D(C   0,C  13,C  11,H  12)    105.8118         0.002909   
    147. D(C   0,C  13,C  11,C   9)    -61.2809         0.005657   
    148. D(H  15,C  13,C  11,C   0)   -110.2255         0.007726   
    149. D(H  15,C  13,C  11,C   9)   -171.5064         0.012709   
    150. D(H  14,C  13,C  11,C   0)     87.0906         0.005036   
    151. D(H  14,C  13,C  11,H  12)   -167.0977         0.006702   
    152. D(H  14,C  13,C  11,C   9)     25.8097         0.010863   
    153. D(H  15,C  13,C   0,C  11)    124.1246         0.018785   
    154. D(H  15,C  13,C   0,C   3)    175.0918         0.019512   
    155. D(H  15,C  13,C   0,H   2)    -63.2680         0.015916   
    156. D(H  15,C  13,C   0,H   1)     53.3002         0.017437   
    157. D(H  14,C  13,C   0,C  11)   -121.1174         0.019491   
    158. D(H  14,C  13,C   0,C   3)    -70.1502         0.017560   
    159. D(H  14,C  13,C   0,H   2)     51.4899         0.017928   
    160. D(H  15,C  13,C  11,H  12)     -4.4138         0.006408   
    161. D(H  14,C  13,C   0,H   1)    168.0581         0.019729   
    162. D(C  11,C  13,C   0,C   3)     50.9672         0.009622   
    163. D(C  11,C  13,C   0,H   2)    172.6074         0.009706   
    164. D(C  11,C  13,C   0,H   1)    -70.8245         0.010276   
    -----------------------------------------------------------------

Number of atoms                         .... 16
Number of degrees of freedom            .... 164


         *************************************************************
         *                GEOMETRY OPTIMIZATION CYCLE   1            *
         *************************************************************
      -----------------------------------------------------------      
     |                   =====================                   |     
     |                           x T B                           |     
     |                   =====================                   |     
     |                         S. Grimme                         |     
     |          Mulliken Center for Theoretical Chemistry        |     
     |                    University of Bonn                     |     
      -----------------------------------------------------------      

   * xtb version 6.7.1pre (5071a88) compiled by 'Marcel@Raven' on 2024-07-23

   xtb is free software: you can redistribute it and/or modify it under
   the terms of the GNU Lesser General Public License as published by
   the Free Software Foundation, either version 3 of the License, or
   (at your option) any later version.
   
   xtb is distributed in the hope that it will be useful,
   but WITHOUT ANY WARRANTY; without even the implied warranty of
   MERCHANTABILITY or FITNESS FOR A PARTICULAR PURPOSE.  See the
   GNU Lesser General Public License for more details.
   
   Cite this work as:
   * C. Bannwarth, E. Caldeweyher, S. Ehlert, A. Hansen, P. Pracht,
     J. Seibert, S. Spicher, S. Grimme, WIREs Comput. Mol. Sci., 2020, 11,
     e01493. DOI: 10.1002/wcms.1493
   
   for GFN2-xTB:
   * C. Bannwarth, S. Ehlert and S. Grimme., J. Chem. Theory Comput., 2019,
     15, 1652-1671. DOI: 10.1021/acs.jctc.8b01176
   for GFN1-xTB:
   * S. Grimme, C. Bannwarth, P. Shushkov, J. Chem. Theory Comput., 2017,
     13, 1989-2009. DOI: 10.1021/acs.jctc.7b00118
   for GFN0-xTB:
   * P. Pracht, E. Caldeweyher, S. Ehlert, S. Grimme, ChemRxiv, 2019, preprint.
     DOI: 10.26434/chemrxiv.8326202.v1
   for GFN-FF:
   * S. Spicher and S. Grimme, Angew. Chem. Int. Ed., 2020, 59, 15665-15673.
     DOI: 10.1002/anie.202004239
   
   for ALPB and GBSA implicit solvation:
   * S. Ehlert, M. Stahn, S. Spicher, S. Grimme, J. Chem. Theory Comput.,
     2021, 17, 4250-4261. DOI: 10.1021/acs.jctc.1c00471
   
   for ddCOSMO and CPCM-X implicit solvation:
   * M. Stahn, S. Ehlert, S. Grimme, J. Phys. Chem. A,
     2023, XX, XXXX-XXXX. DOI: 10.1021/acs.jpca.3c04382
   
   for DFT-D4:
   * E. Caldeweyher, C. Bannwarth and S. Grimme, J. Chem. Phys., 2017,
     147, 034112. DOI: 10.1063/1.4993215
   * E. Caldeweyher, S. Ehlert, A. Hansen, H. Neugebauer, S. Spicher,
     C. Bannwarth and S. Grimme, J. Chem. Phys., 2019, 150, 154122.
     DOI: 10.1063/1.5090222
   * E. Caldeweyher, J.-M. Mewes, S. Ehlert and S. Grimme, Phys. Chem. Chem. Phys.
     2020, 22, 8499-8512. DOI: 10.1039/D0CP00502A
   
   for sTDA-xTB:
   * S. Grimme and C. Bannwarth, J. Chem. Phys., 2016, 145, 054103.
     DOI: 10.1063/1.4959605
   
   in the mass-spec context:
   * V. Asgeirsson, C. Bauer and S. Grimme, Chem. Sci., 2017, 8, 4879.
     DOI: 10.1039/c7sc00601b
   * J. Koopman and S. Grimme, ACS Omega 2019, 4, 12, 15120-15133.
     DOI: 10.1021/acsomega.9b02011
   
   for metadynamics refer to:
   * S. Grimme, J. Chem. Theory Comput., 2019, 155, 2847-2862
     DOI: 10.1021/acs.jctc.9b00143
   
   for SPH calculations refer to:
   * S. Spicher and S. Grimme, J. Chem. Theory Comput., 2021, 17, 1701-1714
     DOI: 10.1021/acs.jctc.0c01306
   
   for ONIOM refer to:
   * C. Plett, A. Katbashev, S. Ehlert, S. Grimme, M. Bursch,
     Phys. Chem. Chem. Phys., 2023, 25, 17860-17868. DOI: 10.1039/D3CP02178E
   
   for DIPRO refer to:
   * J. Kohn, N. Gildemeister, S. Grimme, D. Fazzi, A. Hansen,
     J. Chem. Phys., 2023, just accepted.
   
   for PTB refer to:
   * S. Grimme, M. Mueller, A. Hansen, J. Chem. Phys., 2023, 158, 124111.
     DOI: 10.1063/5.0137838
   
   with help from (in alphabetical order)
   P. Atkinson, C. Bannwarth, F. Bohle, G. Brandenburg, E. Caldeweyher
   M. Checinski, S. Dohm, S. Ehlert, S. Ehrlich, I. Gerasimov, C. H枚lzer
   A. Katbashev, J. Kohn, J. Koopman, C. Lavigne, S. Lehtola, F. M盲rz, M. M眉ller,
   F. Musil, H. Neugebauer, J. Pisarek, C. Plett, P. Pracht, F. Pultar,
   J. Seibert, P. Shushkov, S. Spicher, M. Stahn, M. Steiner, T. Strunk,
   J. St眉ckrath, T. Rose, and J. Unsleber
   
 * started run on 2026/06/24 at 14:09:38.876     
   ID    Z sym.   atoms
    1    6 C      1, 4, 7, 10, 12, 14
    2    1 H      2, 3, 5, 6, 8, 9, 11, 13, 15, 16

           -------------------------------------------------
          |                Calculation Setup                |
           -------------------------------------------------

          program call               : E:\ORCA\xtb-6.7.1pre\xtb.exe  _qst2-test_orca_XTB.xyz --grad -c 0 -u 0 -P 14 --namespace _qst2-test_orca --input _qst2-test_orca_XTB.input.tmp --acc 0.200000      
          calculation namespace      : _qst2-test_orca
          coordinate file            : _qst2-test_orca_XTB.xyz
          omp threads                :                    14


molecular fragmentation (1/2 indicates fragments):
1111112222222222
# atoms in fragment 1/2:     6    10
 fragment masses (1/2) :       28.05       54.09
CMA distance (Bohr)    :   4.718
constraining FC (au)   :  0.0500

           -------------------------------------------------
          |                 G F N 2 - x T B                 |
           -------------------------------------------------

        Reference                      10.1021/acs.jctc.8b01176
      * Hamiltonian:
        H0-scaling (s, p, d)           1.850000    2.230000    2.230000
        zeta-weighting                 0.500000
      * Dispersion:
        s8                             2.700000
        a1                             0.520000
        a2                             5.000000
        s9                             5.000000
      * Repulsion:
        kExp                           1.500000    1.000000
        rExp                           1.000000
      * Coulomb:
        alpha                          2.000000
        third order                    shell-resolved
        anisotropic                    true
        a3                             3.000000
        a5                             4.000000
        cn-shift                       1.200000
        cn-exp                         4.000000
        max-rad                        5.000000


          ...................................................
          :                      SETUP                      :
          :.................................................:
          :  # basis functions                  34          :
          :  # atomic orbitals                  34          :
          :  # shells                           22          :
          :  # electrons                        34          :
          :  max. iterations                   250          :
          :  Hamiltonian                  GFN2-xTB          :
          :  restarted?                      false          :
          :  GBSA solvation                  false          :
          :  PC potential                    false          :
          :  electronic temp.          300.0000000     K    :
          :  accuracy                    0.2000000          :
          :  -> integral cutoff          0.3198970E+02      :
          :  -> integral neglect         0.2000000E-08      :
          :  -> SCF convergence          0.2000000E-06 Eh   :
          :  -> wf. convergence          0.2000000E-04 e    :
          :  Broyden damping             0.4000000          :
          :  net charge                          0          :
          :  unpaired electrons                  0          :
          ...................................................

 iter      E             dE          RMSdq      gap      omega  full diag
   1    -18.1216827 -0.181217E+02  0.436E+00    3.83       0.0  T
   2    -18.1542788 -0.325961E-01  0.251E+00    3.82       1.0  T
   3    -18.1553197 -0.104096E-02  0.678E-01    3.81       1.0  T
   4    -18.1555945 -0.274763E-03  0.104E-01    3.81       1.0  T
   5    -18.1556590 -0.645333E-04  0.584E-02    3.81       1.0  T
   6    -18.1556652 -0.615619E-05  0.220E-02    3.81       1.1  T
   7    -18.1556690 -0.385698E-05  0.456E-03    3.81       5.5  T
   8    -18.1556692 -0.210678E-06  0.148E-03    3.81      16.9  T
   9    -18.1556693 -0.927219E-08  0.561E-04    3.81      44.6  T
  10    -18.1556693 -0.113173E-08  0.194E-04    3.81     129.2  T
  11    -18.1556693 -0.183498E-09  0.873E-05    3.81     286.4  T

   *** convergence criteria satisfied after 11 iterations ***

         #    Occupation            Energy/Eh            Energy/eV
      -------------------------------------------------------------
         1        2.0000           -0.6211549             -16.9025
       ...           ...                  ...                  ...
        11        2.0000           -0.4666238             -12.6975
        12        2.0000           -0.4543588             -12.3637
        13        2.0000           -0.4368304             -11.8868
        14        2.0000           -0.4293469             -11.6831
        15        2.0000           -0.4213073             -11.4644
        16        2.0000           -0.3836730             -10.4403
        17        2.0000           -0.3789713             -10.3123 (HOMO)
        18                         -0.2388561              -6.4996 (LUMO)
        19                         -0.2028199              -5.5190
        20                         -0.1284760              -3.4960
        21                          0.1233273               3.3559
        22                          0.1417756               3.8579
       ...                                ...                  ...
        34                          0.6255452              17.0219
      -------------------------------------------------------------
                  HL-Gap            0.1401152 Eh            3.8127 eV
             Fermi-level           -0.3089137 Eh           -8.4060 eV

 SCC (total)                   0 d,  0 h,  0 min,  0.009 sec
 SCC setup                      ...        0 min,  0.000 sec (  0.000%)
 Dispersion                     ...        0 min,  0.001 sec ( 11.113%)
 classical contributions        ...        0 min,  0.000 sec (  0.000%)
 integral evaluation            ...        0 min,  0.000 sec (  0.000%)
 iterations                     ...        0 min,  0.007 sec ( 77.777%)
 molecular gradient             ...        0 min,  0.001 sec ( 11.110%)
 printout                       ...        0 min,  0.000 sec (  0.000%)

         :::::::::::::::::::::::::::::::::::::::::::::::::::::
         ::                     SUMMARY                     ::
         :::::::::::::::::::::::::::::::::::::::::::::::::::::
         :: total energy             -17.812254804996 Eh    ::
         :: gradient norm              0.004190720598 Eh/a0 ::
         :: HOMO-LUMO gap              3.812727374213 eV    ::
         ::.................................................::
         :: SCC energy               -18.155640481599 Eh    ::
         :: -> isotropic ES            0.002964619513 Eh    ::
         :: -> anisotropic ES          0.006235135475 Eh    ::
         :: -> anisotropic XC          0.017389042540 Eh    ::
         :: -> dispersion             -0.011125431169 Eh    ::
         :: repulsion energy           0.343385676602 Eh    ::
         :: add. restraining           0.000000000000 Eh    ::
         :: total charge              -0.000000000000 e     ::
         :::::::::::::::::::::::::::::::::::::::::::::::::::::


Property printout bound to 'properties.out'

           -------------------------------------------------
          | TOTAL ENERGY              -17.812254804996 Eh   |
          | GRADIENT NORM               0.004190720598 Eh/伪 |
          | HOMO-LUMO GAP               3.812727374213 eV   |
           -------------------------------------------------

------------------------------------------------------------------------
 * finished run on 2026/06/24 at 14:09:38.903     
------------------------------------------------------------------------
 total:
 * wall-time:     0 d,  0 h,  0 min,  0.026 sec
 *  cpu-time:     0 d,  0 h,  0 min,  0.000 sec
 * ratio c/w:     0.000 speedup
 SCF:
 * wall-time:     0 d,  0 h,  0 min,  0.009 sec
 *  cpu-time:     0 d,  0 h,  0 min,  0.000 sec
 * ratio c/w:     0.000 speedup


-------------------------   --------------------
FINAL SINGLE POINT ENERGY       -17.812254805000
-------------------------   --------------------


-------------
DIPOLE MOMENT
-------------
                                X             Y             Z
Total Dipole Moment    :     -0.08200       0.05000      -0.00500
                        -----------------------------------------
Magnitude (a.u.)       :      0.09617
Magnitude (Debye)      :      0.24445


------------------
CARTESIAN GRADIENT
------------------

   1   C   :   -0.000327584   -0.000924355   -0.000323753
   2   H   :   -0.000256642    0.000340707    0.000102231
   3   H   :    0.000608815   -0.000026744    0.000268901
   4   C   :    0.001048176    0.000145660   -0.001944601
   5   H   :   -0.000116712   -0.000171435    0.000403665
   6   H   :    0.000044938    0.000002417    0.000764573
   7   C   :   -0.000953036    0.000060022    0.001672093
   8   H   :    0.000547599   -0.000284013   -0.000728279
   9   H   :   -0.000240242    0.000239797   -0.000075715
  10   C   :    0.000215065   -0.000675548   -0.000420783
  11   H   :   -0.000246980    0.000444511    0.000213109
  12   C   :   -0.000712183    0.000626619   -0.000518031
  13   H   :   -0.000500444   -0.000186325    0.000073639
  14   C   :    0.000984628    0.000772456    0.000649345
  15   H   :    0.000333910   -0.000324930   -0.000608310
  16   H   :   -0.000429308   -0.000038838    0.000471915

Difference to translation invariance:
           :    0.0000000000   -0.0000000000   -0.0000000000

Difference to rotation invariance:
           :   -0.0000000475   -0.0000000878    0.0000000181

Norm of the Cartesian gradient     ...    0.0041907206
RMS gradient                       ...    0.0006048784
MAX gradient                       ...    0.0019446008
------------------------------------------------------------------------------
                         ORCA GEOMETRY RELAXATION STEP
------------------------------------------------------------------------------

Reading the OPT-File                    .... done
Getting information on internals        .... done
Copying old internal coords+grads       .... done
Making the new internal coordinates     .... (2022 redundants) done
Validating the new internal coordinates .... (2022 redundants) done
Calculating the B-matrix                .... done
Calculating the G,G- and P matrices     .... done
Transforming gradient to internals      .... done
Projecting the internal gradient        .... done
Number of atoms                         ....  16
Number of internal coordinates          .... 164
Current Energy                          ....   -17.812254805 Eh
Current gradient norm                   ....     0.004190721 Eh/bohr
Maximum allowed component of the step   ....  0.300
Current trust radius                    ....  0.100
Evaluating the initial hessian          ....  (read) 
(Reading Exact Hessian)...  
InHessName: _qst2-test_orca.appr.hess	The file <_qst2-test_orca.appr.hess> is opened as a .hess file
done
done
Projecting the Hessian                  .... done
Diagonalizing the Hessian               .... done
Dimension of the hessian                .... 164
Lowest eigenvalues of the Hessian:
 -0.011032981 -0.000000000  0.000123459  0.000543851  0.001004574
WARNING! Eigenvalue   2 too small, replaced by -0.000100000
Hessian has   2 negative eigenvalues
Taking P-RFO step
Searching for lambda that maximizes along the lowest mode
TS mode is mode number   0 with eigenvalue  -0.01103298 and components:
   1.    0.00189930
   2.   -0.00398917
   3.    0.04910453
   4.   -0.00002078
   5.    0.00615754
   6.   -0.20913101
   7.   -0.11956860
   8.   -0.31106515
   9.   -0.06578325
  10.    0.00701831
  11.   -0.00163021
  12.   -0.03070070
  13.    0.01006848
  14.   -0.19941598
  15.   -0.13080251
  16.   -0.28249625
  17.   -0.17262042
  18.    0.04053188
  19.   -0.01291148
  20.   -0.00226728
  21.   -0.03545090
  22.   -0.03207620
  23.   -0.17051120
  24.   -0.01093326
  25.   -0.00337882
  26.   -0.10295378
  27.    0.03570605
  28.   -0.21157253
  29.   -0.02819726
  30.   -0.29707984
  31.    0.00503135
  32.   -0.04926661
  33.   -0.04909518
  34.    0.00583362
  35.   -0.28867656
  36.   -0.22376023
  37.    0.00924974
  38.   -0.13088730
  39.    0.01270249
  40.    0.02175935
  41.   -0.01765151
  42.   -0.00223596
  43.    0.03084663
  44.   -0.02268170
  45.    0.07360870
  46.    0.05216551
  47.    0.08798444
  48.   -0.01301553
  49.    0.03782839
  50.    0.01303898
  51.   -0.00183576
  52.    0.08560953
  53.   -0.02323460
  54.    0.01309641
  55.    0.07319956
  56.   -0.02777469
  57.    0.02286772
  58.    0.05989824
  59.   -0.00747659
  60.    0.03767692
  61.   -0.00023456
  62.    0.11163925
  63.   -0.01704331
  64.   -0.02289075
  65.    0.02496737
  66.   -0.02859450
  67.   -0.00865353
  68.    0.00285275
  69.   -0.00822549
  70.   -0.06054464
  71.   -0.00936031
  72.   -0.02230194
  73.    0.02476321
  74.   -0.05603533
  75.   -0.00054479
  76.    0.01201791
  77.   -0.01110792
  78.    0.11330866
  79.    0.03427598
  80.   -0.00655696
  81.   -0.01397314
  82.   -0.01877148
  83.   -0.00854290
  84.    0.09645221
  85.   -0.03131634
  86.    0.14008548
  87.   -0.10881527
  88.    0.03981311
  89.   -0.04958024
  90.   -0.00382016
  91.   -0.08930611
  92.    0.05932227
  93.    0.01568900
  94.    0.07818832
  95.    0.01231692
  96.   -0.13631145
  97.    0.00796634
  98.    0.01066955
  99.    0.00432538
 100.    0.00093760
 101.   -0.01200541
 102.    0.01499493
 103.   -0.01539319
 104.   -0.00338778
 105.   -0.00133586
 106.   -0.00403907
 107.    0.01229172
 108.   -0.02779200
 109.    0.01507570
 110.    0.00226370
 111.   -0.01029485
 112.   -0.02310684
 113.    0.01924650
 114.   -0.02901774
 115.   -0.00977124
 116.   -0.18040183
 117.   -0.05316254
 118.    0.04815182
 119.    0.00300037
 120.   -0.12247877
 121.   -0.02479163
 122.    0.01807607
 123.    0.02890532
 124.   -0.15138409
 125.    0.00526407
 126.   -0.02537054
 127.    0.05826772
 128.   -0.05280631
 129.   -0.05316835
 130.   -0.01613060
 131.   -0.01649264
 132.    0.04452411
 133.    0.01049218
 134.   -0.00617508
 135.    0.03423960
 136.    0.03104123
 137.    0.04153341
 138.    0.02486615
 139.    0.06528083
 140.    0.00784840
 141.   -0.00525855
 142.    0.00523363
 143.   -0.01143363
 144.   -0.00274903
 145.    0.02898105
 146.   -0.01627702
 147.    0.01695562
 148.   -0.00489429
 149.    0.01206132
 150.    0.15247376
 151.    0.13619673
 152.    0.16942937
 153.   -0.00578643
 154.    0.00527714
 155.   -0.00824570
 156.   -0.00800218
 157.    0.01115991
 158.    0.02222347
 159.    0.00870063
 160.   -0.02117131
 161.    0.00894416
 162.    0.01106357
 163.   -0.00245927
 164.   -0.00221575

Lambda that maximizes along the TS mode:       0.00010672
Searching for lambda that minimizes along all other modes
In cycle   1: lambdaN =  -0.00002573   step =  -0.05007427
In cycle   2: lambdaN =  -0.00009472   step =   0.00006899
In cycle   3: lambdaN =  -0.00009042   step =  -0.00000431
In cycle   4: lambdaN =  -0.00008418   step =  -0.00000623
In cycle   5: lambdaN =  -0.00007794   step =  -0.00000625
In cycle   6: lambdaN =  -0.00007493   step =  -0.00000301
In cycle   7: lambdaN =  -0.00007454   step =  -0.00000039
In cycle   8: lambdaN =  -0.00007454   step =  -0.00000001
UNABLE TO DETERMINE LAMBDA
Bisect method failed
iter: 9999 fct1    0.0501 fct2 99990.0501 fct3    0.0000 lambda1   -0.0501 lambda2 -99990.0501
Using lambda anyway
Hessian diagonal increased by    0.0003
Searching for lambda that maximizes along the lowest mode
TS mode is mode number   0 with eigenvalue  -0.01073298 and components:
   1.    0.00189930
   2.   -0.00398917
   3.    0.04910453
   4.   -0.00002078
   5.    0.00615754
   6.   -0.20913101
   7.   -0.11956860
   8.   -0.31106515
   9.   -0.06578325
  10.    0.00701831
  11.   -0.00163021
  12.   -0.03070070
  13.    0.01006848
  14.   -0.19941598
  15.   -0.13080251
  16.   -0.28249625
  17.   -0.17262042
  18.    0.04053188
  19.   -0.01291148
  20.   -0.00226728
  21.   -0.03545090
  22.   -0.03207620
  23.   -0.17051120
  24.   -0.01093326
  25.   -0.00337882
  26.   -0.10295378
  27.    0.03570605
  28.   -0.21157253
  29.   -0.02819726
  30.   -0.29707984
  31.    0.00503135
  32.   -0.04926661
  33.   -0.04909518
  34.    0.00583362
  35.   -0.28867656
  36.   -0.22376023
  37.    0.00924974
  38.   -0.13088730
  39.    0.01270249
  40.    0.02175935
  41.   -0.01765151
  42.   -0.00223596
  43.    0.03084663
  44.   -0.02268170
  45.    0.07360870
  46.    0.05216551
  47.    0.08798444
  48.   -0.01301553
  49.    0.03782839
  50.    0.01303898
  51.   -0.00183576
  52.    0.08560953
  53.   -0.02323460
  54.    0.01309641
  55.    0.07319956
  56.   -0.02777469
  57.    0.02286772
  58.    0.05989824
  59.   -0.00747659
  60.    0.03767692
  61.   -0.00023456
  62.    0.11163925
  63.   -0.01704331
  64.   -0.02289075
  65.    0.02496737
  66.   -0.02859450
  67.   -0.00865353
  68.    0.00285275
  69.   -0.00822549
  70.   -0.06054464
  71.   -0.00936031
  72.   -0.02230194
  73.    0.02476321
  74.   -0.05603533
  75.   -0.00054479
  76.    0.01201791
  77.   -0.01110792
  78.    0.11330866
  79.    0.03427598
  80.   -0.00655696
  81.   -0.01397314
  82.   -0.01877148
  83.   -0.00854290
  84.    0.09645221
  85.   -0.03131634
  86.    0.14008548
  87.   -0.10881527
  88.    0.03981311
  89.   -0.04958024
  90.   -0.00382016
  91.   -0.08930611
  92.    0.05932227
  93.    0.01568900
  94.    0.07818832
  95.    0.01231692
  96.   -0.13631145
  97.    0.00796634
  98.    0.01066955
  99.    0.00432538
 100.    0.00093760
 101.   -0.01200541
 102.    0.01499493
 103.   -0.01539319
 104.   -0.00338778
 105.   -0.00133586
 106.   -0.00403907
 107.    0.01229172
 108.   -0.02779200
 109.    0.01507570
 110.    0.00226370
 111.   -0.01029485
 112.   -0.02310684
 113.    0.01924650
 114.   -0.02901774
 115.   -0.00977124
 116.   -0.18040183
 117.   -0.05316254
 118.    0.04815182
 119.    0.00300037
 120.   -0.12247877
 121.   -0.02479163
 122.    0.01807607
 123.    0.02890532
 124.   -0.15138409
 125.    0.00526407
 126.   -0.02537054
 127.    0.05826772
 128.   -0.05280631
 129.   -0.05316835
 130.   -0.01613060
 131.   -0.01649264
 132.    0.04452411
 133.    0.01049218
 134.   -0.00617508
 135.    0.03423960
 136.    0.03104123
 137.    0.04153341
 138.    0.02486615
 139.    0.06528083
 140.    0.00784840
 141.   -0.00525855
 142.    0.00523363
 143.   -0.01143363
 144.   -0.00274903
 145.    0.02898105
 146.   -0.01627702
 147.    0.01695562
 148.   -0.00489429
 149.    0.01206132
 150.    0.15247376
 151.    0.13619673
 152.    0.16942937
 153.   -0.00578643
 154.    0.00527714
 155.   -0.00824570
 156.   -0.00800218
 157.    0.01115991
 158.    0.02222347
 159.    0.00870063
 160.   -0.02117131
 161.    0.00894416
 162.    0.01106357
 163.   -0.00245927
 164.   -0.00221575

Lambda that maximizes along the TS mode:       0.00010964
Searching for lambda that minimizes along all other modes
In cycle   1: lambdaN =  -0.00018423   step =   0.00018423
In cycle   2: lambdaN =  -0.00022383   step =   0.00003960
In cycle   3: lambdaN =  -0.00022451   step =   0.00000068
In cycle   4: lambdaN =  -0.00022451   step =   0.00000000
Lambda that minimizes along all other modes:  -0.00022451
Calculated stepsize too large (   0.5413 >    0.1000). Scaled with    0.1848.
The final length of the internal step   ....       0.1000
Converting the step to Cartesian space:
 Initial RMS(Int)=    0.0078086881
Transforming coordinates:
 Iter   0:  RMS(Cart)=    0.0088791804 RMS(Int)=    0.0078070998
done
Storing new coordinates                 .... done

                                .--------------------.
          ----------------------|Geometry convergence|-------------------------
          Item                value                   Tolerance       Converged
          ---------------------------------------------------------------------
          RMS gradient        0.0001556514            0.0001000000      NO
          MAX gradient        0.0005904143            0.0003000000      NO
          RMS step            0.0078086881            0.0020000000      NO
          MAX step            0.0357316217            0.0040000000      NO
          -------------------------------------------------------------------------
          ........................................................
          Max(Bonds)      0.0189      Max(Angles)    0.72
          Max(Dihed)        0.81      Max(Improp)    0.00
          ---------------------------------------------------------------------

The optimization has not yet converged - more geometry cycles are needed


    ---------------------------------------------------------------------------
                         Redundant Internal Coordinates
                            (Angstroem and degrees)

        Definition                    Value    dE/dq     Step     New-Value  comp.(TS mode)
    ----------------------------------------------------------------------------
     1. B(H   1,C   0)                1.0754 -0.000277  0.0001    1.0755   
     2. B(H   2,C   0)                1.0752 -0.000590  0.0001    1.0753   
     3. B(C   3,C   0)                1.3478  0.000041  0.0005    1.3483   
     4. B(H   4,C   3)                1.0760 -0.000131  0.0000    1.0760   
     5. B(H   5,C   3)                1.0765  0.000288 -0.0000    1.0765   
     6. B(C   6,H   4)                2.4909 -0.000237  0.0078    2.4988   
     7. B(C   6,H   5)                2.5349  0.000026 -0.0165    2.5183   
     8. B(C   6,C   3)                2.3240 -0.000425 -0.0045    2.3195          0.31
     9. B(H   7,C   3)                2.4721 -0.000004 -0.0136    2.4584   
    10. B(H   7,C   6)                1.0741 -0.000319  0.0002    1.0742   
    11. B(H   7,H   4)                2.3547  0.000262 -0.0034    2.3514   
    12. B(H   7,C   0)                2.9861  0.000045 -0.0099    2.9762   
    13. B(H   8,C   6)                1.0781  0.000250  0.0000    1.0781   
    14. B(H   8,H   4)                2.7215 -0.000115  0.0071    2.7286   
    15. B(H   8,H   5)                2.7196  0.000094 -0.0189    2.7007   
    16. B(H   8,C   3)                2.7746 -0.000246 -0.0056    2.7690          0.28
    17. B(C   9,C   3)                2.8435 -0.000262  0.0071    2.8506   
    18. B(C   9,C   6)                1.3524  0.000048  0.0004    1.3528   
    19. B(C   9,H   5)                2.8455  0.000077 -0.0026    2.8429   
    20. B(H  10,C   9)                1.0818 -0.000206  0.0000    1.0818   
    21. B(C  11,C   9)                1.4188  0.000161 -0.0004    1.4184   
    22. B(C  11,C   6)                2.4286 -0.000007 -0.0003    2.4283   
    23. B(C  11,C   0)                2.8616 -0.000301  0.0033    2.8650   
    24. B(C  11,H   1)                2.8518 -0.000016 -0.0054    2.8464   
    25. B(H  12,C  11)                1.0821 -0.000123 -0.0000    1.0821   
    26. B(C  13,H   1)                2.5409 -0.000052 -0.0123    2.5286   
    27. B(C  13,C  11)                1.3504 -0.000566  0.0005    1.3509   
    28. B(C  13,H   2)                2.5139 -0.000160  0.0013    2.5152   
    29. B(C  13,C   9)                2.4303 -0.000255 -0.0002    2.4302   
    30. B(C  13,C   0)                2.3557 -0.000156 -0.0055    2.3502          0.30
    31. B(H  14,C  13)                1.0741 -0.000202  0.0001    1.0742   
    32. B(H  14,C   0)                2.4791  0.000084 -0.0108    2.4683   
    33. B(H  14,C   3)                2.9960 -0.000078 -0.0098    2.9862   
    34. B(H  14,H   2)                2.3475  0.000289 -0.0031    2.3443   
    35. B(H  15,C   0)                2.8060 -0.000120 -0.0053    2.8007          0.29
    36. B(H  15,H   2)                2.7553 -0.000140 -0.0010    2.7544   
    37. B(H  15,C  13)                1.0783  0.000498 -0.0001    1.0782   
    38. B(H  15,H   1)                2.7216 -0.000071 -0.0109    2.7106   
    39. A(H   1,C   0,H   2)          116.21 -0.000006    0.02    116.24   
    40. A(C  11,C   0,C  13)           27.90 -0.000093   -0.05     27.85   
    41. A(H   1,C   0,C   3)          120.94  0.000043   -0.01    120.93   
    42. A(C   3,C   0,C  13)          108.75 -0.000079    0.07    108.82   
    43. A(H   2,C   0,C  13)           85.64  0.000101    0.35     85.99   
    44. A(H   2,C   0,C   3)          121.32 -0.000067   -0.01    121.30   
    45. A(H   1,C   0,C  11)           78.64  0.000156   -0.46     78.18   
    46. A(H   2,C   0,C  11)          113.30  0.000004    0.31    113.61   
    47. A(H   1,C   0,C  13)           87.18  0.000103   -0.43     86.75   
    48. A(C   3,C   0,C  11)           90.29 -0.000016    0.12     90.41   
    49. A(H   4,C   3,C   6)           85.94  0.000102    0.68     86.62   
    50. A(H   4,C   3,H   5)          116.27  0.000100    0.02    116.30   
    51. A(C   0,C   3,C   9)           91.14  0.000040   -0.14     91.00   
    52. A(H   5,C   3,C   6)           88.46  0.000158   -0.72     87.74   
    53. A(C   0,C   3,H   5)          120.63 -0.000016   -0.00    120.62   
    54. A(C   0,C   3,C   6)          109.28  0.000047   -0.02    109.26   
    55. A(H   5,C   3,C   9)           79.20  0.000133   -0.50     78.70   
    56. A(C   0,C   3,H   4)          121.00 -0.000166    0.00    121.00   
    57. A(C   6,C   3,C   9)           28.11  0.000033   -0.11     28.00   
    58. A(H   4,C   3,C   9)          113.89  0.000131    0.55    114.44   
    59. A(H   7,C   6,H   8)          115.38 -0.000035    0.01    115.39   
    60. A(C   3,C   6,C   9)           97.82  0.000041    0.57     98.39   
    61. A(C   3,C   6,H   8)          103.09  0.000001   -0.09    103.00   
    62. A(C   3,C   6,H   7)           84.90  0.000258   -0.55     84.36   
    63. A(H   8,C   6,C   9)          120.70  0.000066   -0.01    120.70   
    64. A(H   7,C   6,C   9)          121.32 -0.000132    0.00    121.32   
    65. A(H  10,C   9,C  11)          117.17  0.000244    0.01    117.18   
    66. A(C   6,C   9,C  11)          122.40 -0.000151   -0.03    122.37   
    67. A(C   6,C   9,H  10)          119.09 -0.000128   -0.00    119.09   
    68. A(C   3,C   9,C  11)           89.61 -0.000053   -0.02     89.59   
    69. A(C   3,C   9,H  10)          117.49 -0.000152    0.45    117.94   
    70. A(C   3,C   9,C   6)           54.06 -0.000074   -0.46     53.61   
    71. A(H  12,C  11,C  13)          118.95 -0.000212    0.01    118.96   
    72. A(C   9,C  11,C  13)          122.69  0.000076   -0.02    122.67   
    73. A(C   9,C  11,H  12)          117.15  0.000113    0.02    117.17   
    74. A(C   0,C  11,C  13)           54.72  0.000015   -0.36     54.37   
    75. A(C   0,C  11,H  12)          118.31 -0.000162    0.36    118.67   
    76. A(C   0,C  11,C   9)           88.96  0.000030    0.04     89.00   
    77. A(C   0,C  13,H  15)          103.22 -0.000158   -0.01    103.21   
    78. A(C   0,C  13,H  14)           83.68  0.000152   -0.33     83.35   
    79. A(C   0,C  13,C  11)           97.37  0.000079    0.41     97.78   
    80. A(H  14,C  13,H  15)          115.49 -0.000040   -0.00    115.49   
    81. A(C  11,C  13,H  15)          120.81  0.000120   -0.02    120.80   
    82. A(C  11,C  13,H  14)          121.57 -0.000109   -0.01    121.56   
    83. D(H   5,C   3,C   0,H   1)     -1.10 -0.000054    0.11     -0.99   
    84. D(C   6,C   3,C   0,H   1)     98.93  0.000168   -0.81     98.12   
    85. D(C   6,C   3,C   0,H   2)    -95.75  0.000027   -0.80    -96.54   
    86. D(H   4,C   3,C   0,H   1)   -164.02  0.000255    0.02   -163.99   
    87. D(H   5,C   3,C   0,C  13)    -99.31 -0.000148    0.60    -98.72   
    88. D(H   4,C   3,C   0,C  13)     97.77  0.000160    0.51     98.28   
    89. D(C   9,C   3,C   0,H   2)   -117.67 -0.000014   -0.55   -118.21   
    90. D(C   6,C   3,C   0,C  13)      0.72  0.000073   -0.32      0.39   
    91. D(H   5,C   3,C   0,C  11)    -78.00 -0.000222    0.57    -77.42   
    92. D(H   4,C   3,C   0,C  11)    119.09  0.000087    0.49    119.57   
    93. D(C   6,C   3,C   0,C  11)     22.03 -0.000000   -0.34     21.69   
    94. D(C   9,C   3,C   0,H   1)     77.01  0.000127   -0.56     76.45   
    95. D(H   4,C   3,C   0,H   2)      1.31  0.000114    0.03      1.34   
    96. D(H   5,C   3,C   0,H   2)    164.23 -0.000194    0.12    164.35   
    97. D(C   9,C   6,C   3,H   5)     69.65  0.000003    0.25     69.90   
    98. D(C   9,C   6,C   3,H   4)   -173.87  0.000082    0.30   -173.58   
    99. D(H   8,C   6,C   3,C   9)   -124.13 -0.000087   -0.17   -124.31   
   100. D(H   8,C   6,C   3,C   0)   -176.53 -0.000138    0.37   -176.16   
   101. D(H   7,C   6,C   3,C   9)    120.96 -0.000106   -0.07    120.89   
   102. D(H   8,C   6,C   3,H   4)     61.99 -0.000005    0.12     62.12   
   103. D(H   7,C   6,C   3,C   0)     68.57 -0.000158    0.48     69.05   
   104. D(C   9,C   6,C   3,C   0)    -52.39 -0.000051    0.55    -51.85   
   105. D(H   7,C   6,C   3,H   4)    -52.91 -0.000024    0.23    -52.68   
   106. D(H   7,C   6,C   3,H   5)   -169.39 -0.000103    0.18   -169.21   
   107. D(H   8,C   6,C   3,H   5)    -54.49 -0.000084    0.08    -54.41   
   108. D(C   6,C   9,C   3,H   5)   -107.42 -0.000064    0.54   -106.88   
   109. D(C   6,C   9,C   3,H   4)      6.68  0.000097    0.36      7.04   
[...]
                 *******************************************************
      -----------------------------------------------------------      
     |                   =====================                   |     
     |                           x T B                           |     
     |                   =====================                   |     
     |                         S. Grimme                         |     
     |          Mulliken Center for Theoretical Chemistry        |     
     |                    University of Bonn                     |     
      -----------------------------------------------------------      

   * xtb version 6.7.1pre (5071a88) compiled by 'Marcel@Raven' on 2024-07-23

   xtb is free software: you can redistribute it and/or modify it under
   the terms of the GNU Lesser General Public License as published by
   the Free Software Foundation, either version 3 of the License, or
   (at your option) any later version.
   
   xtb is distributed in the hope that it will be useful,
   but WITHOUT ANY WARRANTY; without even the implied warranty of
   MERCHANTABILITY or FITNESS FOR A PARTICULAR PURPOSE.  See the
   GNU Lesser General Public License for more details.
   
   Cite this work as:
   * C. Bannwarth, E. Caldeweyher, S. Ehlert, A. Hansen, P. Pracht,
     J. Seibert, S. Spicher, S. Grimme, WIREs Comput. Mol. Sci., 2020, 11,
     e01493. DOI: 10.1002/wcms.1493
   
   for GFN2-xTB:
   * C. Bannwarth, S. Ehlert and S. Grimme., J. Chem. Theory Comput., 2019,
     15, 1652-1671. DOI: 10.1021/acs.jctc.8b01176
   for GFN1-xTB:
   * S. Grimme, C. Bannwarth, P. Shushkov, J. Chem. Theory Comput., 2017,
     13, 1989-2009. DOI: 10.1021/acs.jctc.7b00118
   for GFN0-xTB:
   * P. Pracht, E. Caldeweyher, S. Ehlert, S. Grimme, ChemRxiv, 2019, preprint.
     DOI: 10.26434/chemrxiv.8326202.v1
   for GFN-FF:
   * S. Spicher and S. Grimme, Angew. Chem. Int. Ed., 2020, 59, 15665-15673.
     DOI: 10.1002/anie.202004239
   
   for ALPB and GBSA implicit solvation:
   * S. Ehlert, M. Stahn, S. Spicher, S. Grimme, J. Chem. Theory Comput.,
     2021, 17, 4250-4261. DOI: 10.1021/acs.jctc.1c00471
   
   for ddCOSMO and CPCM-X implicit solvation:
   * M. Stahn, S. Ehlert, S. Grimme, J. Phys. Chem. A,
     2023, XX, XXXX-XXXX. DOI: 10.1021/acs.jpca.3c04382
   
   for DFT-D4:
   * E. Caldeweyher, C. Bannwarth and S. Grimme, J. Chem. Phys., 2017,
     147, 034112. DOI: 10.1063/1.4993215
   * E. Caldeweyher, S. Ehlert, A. Hansen, H. Neugebauer, S. Spicher,
     C. Bannwarth and S. Grimme, J. Chem. Phys., 2019, 150, 154122.
     DOI: 10.1063/1.5090222
   * E. Caldeweyher, J.-M. Mewes, S. Ehlert and S. Grimme, Phys. Chem. Chem. Phys.
     2020, 22, 8499-8512. DOI: 10.1039/D0CP00502A
   
   for sTDA-xTB:
   * S. Grimme and C. Bannwarth, J. Chem. Phys., 2016, 145, 054103.
     DOI: 10.1063/1.4959605
   
   in the mass-spec context:
   * V. Asgeirsson, C. Bauer and S. Grimme, Chem. Sci., 2017, 8, 4879.
     DOI: 10.1039/c7sc00601b
   * J. Koopman and S. Grimme, ACS Omega 2019, 4, 12, 15120-15133.
     DOI: 10.1021/acsomega.9b02011
   
   for metadynamics refer to:
   * S. Grimme, J. Chem. Theory Comput., 2019, 155, 2847-2862
     DOI: 10.1021/acs.jctc.9b00143
   
   for SPH calculations refer to:
   * S. Spicher and S. Grimme, J. Chem. Theory Comput., 2021, 17, 1701-1714
     DOI: 10.1021/acs.jctc.0c01306
   
   for ONIOM refer to:
   * C. Plett, A. Katbashev, S. Ehlert, S. Grimme, M. Bursch,
     Phys. Chem. Chem. Phys., 2023, 25, 17860-17868. DOI: 10.1039/D3CP02178E
   
   for DIPRO refer to:
   * J. Kohn, N. Gildemeister, S. Grimme, D. Fazzi, A. Hansen,
     J. Chem. Phys., 2023, just accepted.
   
   for PTB refer to:
   * S. Grimme, M. Mueller, A. Hansen, J. Chem. Phys., 2023, 158, 124111.
     DOI: 10.1063/5.0137838
   
   with help from (in alphabetical order)
   P. Atkinson, C. Bannwarth, F. Bohle, G. Brandenburg, E. Caldeweyher
   M. Checinski, S. Dohm, S. Ehlert, S. Ehrlich, I. Gerasimov, C. H枚lzer
   A. Katbashev, J. Kohn, J. Koopman, C. Lavigne, S. Lehtola, F. M盲rz, M. M眉ller,
   F. Musil, H. Neugebauer, J. Pisarek, C. Plett, P. Pracht, F. Pultar,
   J. Seibert, P. Shushkov, S. Spicher, M. Stahn, M. Steiner, T. Strunk,
   J. St眉ckrath, T. Rose, and J. Unsleber
   
 * started run on 2026/06/24 at 14:09:39.757     
   ID    Z sym.   atoms
    1    6 C      1, 4, 7, 10, 12, 14
    2    1 H      2, 3, 5, 6, 8, 9, 11, 13, 15, 16

           -------------------------------------------------
          |                Calculation Setup                |
           -------------------------------------------------

          program call               : E:\ORCA\xtb-6.7.1pre\xtb.exe  _qst2-test_orca_XTB.xyz --grad -c 0 -u 0 -P 14 --namespace _qst2-test_orca --input _qst2-test_orca_XTB.input.tmp --acc 0.200000      
          calculation namespace      : _qst2-test_orca
          coordinate file            : _qst2-test_orca_XTB.xyz
          omp threads                :                    14


molecular fragmentation (1/2 indicates fragments):
1111112222222222
# atoms in fragment 1/2:     6    10
 fragment masses (1/2) :       28.05       54.09
CMA distance (Bohr)    :   4.689
constraining FC (au)   :  0.0500

           -------------------------------------------------
          |                 G F N 2 - x T B                 |
           -------------------------------------------------

        Reference                      10.1021/acs.jctc.8b01176
      * Hamiltonian:
        H0-scaling (s, p, d)           1.850000    2.230000    2.230000
        zeta-weighting                 0.500000
      * Dispersion:
        s8                             2.700000
        a1                             0.520000
        a2                             5.000000
        s9                             5.000000
      * Repulsion:
        kExp                           1.500000    1.000000
        rExp                           1.000000
      * Coulomb:
        alpha                          2.000000
        third order                    shell-resolved
        anisotropic                    true
        a3                             3.000000
        a5                             4.000000
        cn-shift                       1.200000
        cn-exp                         4.000000
        max-rad                        5.000000

q/qsh data taken from xtbrestart
CAMM data taken from xtbrestart

          ...................................................
          :                      SETUP                      :
          :.................................................:
          :  # basis functions                  34          :
          :  # atomic orbitals                  34          :
          :  # shells                           22          :
          :  # electrons                        34          :
          :  max. iterations                   250          :
          :  Hamiltonian                  GFN2-xTB          :
          :  restarted?                       true          :
          :  GBSA solvation                  false          :
          :  PC potential                    false          :
          :  electronic temp.          300.0000000     K    :
          :  accuracy                    0.2000000          :
          :  -> integral cutoff          0.3198970E+02      :
          :  -> integral neglect         0.2000000E-08      :
          :  -> SCF convergence          0.2000000E-06 Eh   :
          :  -> wf. convergence          0.2000000E-04 e    :
          :  Broyden damping             0.4000000          :
          :  net charge                          0          :
          :  unpaired electrons                  0          :
          ...................................................

 iter      E             dE          RMSdq      gap      omega  full diag
   1    -18.1537641 -0.181538E+02  0.663E-03    3.85       0.0  T
   2    -18.1537641 -0.285615E-07  0.445E-03    3.85       5.6  T
   3    -18.1537641 -0.219766E-07  0.271E-03    3.85       9.2  T
   4    -18.1537642 -0.478228E-07  0.288E-04    3.85      86.8  T
   5    -18.1537642 -0.102397E-08  0.897E-05    3.85     278.6  T
   6    -18.1537642 -0.282476E-10  0.459E-05    3.85     545.2  T

   *** convergence criteria satisfied after 6 iterations ***

         #    Occupation            Energy/Eh            Energy/eV
      -------------------------------------------------------------
         1        2.0000           -0.6208666             -16.8946
       ...           ...                  ...                  ...
        11        2.0000           -0.4668358             -12.7032
        12        2.0000           -0.4544075             -12.3651
        13        2.0000           -0.4374714             -11.9042
        14        2.0000           -0.4291273             -11.6771
        15        2.0000           -0.4210581             -11.4576
        16        2.0000           -0.3822761             -10.4023
        17        2.0000           -0.3789572             -10.3120 (HOMO)
        18                         -0.2376023              -6.4655 (LUMO)
        19                         -0.2032981              -5.5320
        20                         -0.1266589              -3.4466
        21                          0.1231872               3.3521
        22                          0.1417850               3.8582
       ...                                ...                  ...
        34                          0.6207684              16.8920
      -------------------------------------------------------------
                  HL-Gap            0.1413549 Eh            3.8465 eV
             Fermi-level           -0.3082798 Eh           -8.3887 eV

 SCC (total)                   0 d,  0 h,  0 min,  0.005 sec
 SCC setup                      ...        0 min,  0.000 sec (  0.000%)
 Dispersion                     ...        0 min,  0.000 sec (  0.000%)
 classical contributions        ...        0 min,  0.000 sec (  0.000%)
 integral evaluation            ...        0 min,  0.000 sec (  0.000%)
 iterations                     ...        0 min,  0.003 sec ( 59.997%)
 molecular gradient             ...        0 min,  0.001 sec ( 20.004%)
 printout                       ...        0 min,  0.001 sec ( 19.999%)

         :::::::::::::::::::::::::::::::::::::::::::::::::::::
         ::                     SUMMARY                     ::
         :::::::::::::::::::::::::::::::::::::::::::::::::::::
         :: total energy             -17.812258987939 Eh    ::
         :: gradient norm              0.000260018557 Eh/a0 ::
         :: HOMO-LUMO gap              3.846462883161 eV    ::
         ::.................................................::
         :: SCC energy               -18.153735821562 Eh    ::
         :: -> isotropic ES            0.002969155462 Eh    ::
         :: -> anisotropic ES          0.006247642126 Eh    ::
         :: -> anisotropic XC          0.017265978020 Eh    ::
         :: -> dispersion             -0.011140440190 Eh    ::
         :: repulsion energy           0.341476833623 Eh    ::
         :: add. restraining           0.000000000000 Eh    ::
         :: total charge               0.000000000000 e     ::
         :::::::::::::::::::::::::::::::::::::::::::::::::::::


Property printout bound to 'properties.out'

           -------------------------------------------------
          | TOTAL ENERGY              -17.812258987939 Eh   |
          | GRADIENT NORM               0.000260018557 Eh/伪 |
          | HOMO-LUMO GAP               3.846462883161 eV   |
           -------------------------------------------------

------------------------------------------------------------------------
 * finished run on 2026/06/24 at 14:09:39.774     
------------------------------------------------------------------------
 total:
 * wall-time:     0 d,  0 h,  0 min,  0.016 sec
 *  cpu-time:     0 d,  0 h,  0 min,  0.016 sec
 * ratio c/w:     0.977 speedup
 SCF:
 * wall-time:     0 d,  0 h,  0 min,  0.005 sec
 *  cpu-time:     0 d,  0 h,  0 min,  0.000 sec
 * ratio c/w:     0.000 speedup


-------------------------   --------------------
FINAL SINGLE POINT ENERGY       -17.812258987940
-------------------------   --------------------


-------------
DIPOLE MOMENT
-------------
                                X             Y             Z
Total Dipole Moment    :     -0.09300       0.05000       0.00200
                        -----------------------------------------
Magnitude (a.u.)       :      0.10561
Magnitude (Debye)      :      0.26843

                                *** OPTIMIZATION RUN DONE ***



                    ***********************HURRAY************************
                    ***        THE TS OPTIMIZATION HAS CONVERGED      ***
                    *****************************************************



---------------------------------------------------------------
                      PATH SUMMARY FOR NEB-TS             
---------------------------------------------------------------
All forces in Eh/Bohr. Global forces for TS.

Image     E(Eh)   dE(kcal/mol)  max(|Fp|)  RMS(Fp)
  0     -17.81694     0.00       0.01094   0.00270
  1     -17.81435     1.63       0.01305   0.00319
  2     -17.81291     2.53       0.00149   0.00055
  3     -17.81229     2.92       0.00034   0.00016
  4     -17.81380     1.97       0.00738   0.00326
  5     -17.81527     1.05       0.00498   0.00173
  6     -17.81225     2.94       0.00112   0.00046 <= CI
 TS     -17.81226     2.94       0.00021   0.00007 <= TS
  7     -17.82129    -2.73       0.00782   0.00330
  8     -17.89387   -48.27       0.01142   0.00420
  9     -17.92423   -67.32       0.00383   0.00095
 10     -17.92438   -67.42       0.00304   0.00074
 11     -17.92437   -67.41       0.00235   0.00060
 12     -17.92433   -67.39       0.00174   0.00048
 13     -17.92428   -67.35       0.00119   0.00038
 14     -17.92421   -67.31       0.00095   0.00034
 15     -17.92414   -67.27       0.00104   0.00033
----------
STATISTICS
----------

For the individual parts of the NEB, NEB-CI or NEB-TS run:

Number of iterations:
     NEB                               ... 65  83.3%
     TS optimization                   ... 13  16.7%
Number of SCF / gradient calculations:
     NEB                               ... 1296  99.0%
     TS optimization                   ... 13  1.0%

----------
 TIMINGS
----------

For the individual parts of the NEB, NEB-CI or NEB-TS run:

Total                                  ...       86.391 sec
NEB                                    ...       85.417 sec  98.9%
TS Optimization                        ...        0.974 sec  1.1%


--------------------------------
SUGGESTED CITATIONS FOR THIS RUN
--------------------------------

Below you find a list of papers that are relevant to this ORCA run
We neither can nor want to force you to cite these papers, but we appreciate if you do
You receive ORCA, which is the product of decades of hard work by many enthusiastic individuals, for free
The only thing we kindly ask in return is that you cite our papers,
We deeply appreciate it, if you show your appreciation for ORCA by not just citing the generic ORCA reference.

Please note that relegating all ORCA citations to the supporting information does *not* help us.
SI sections are not indexed - citations you put there will not count into any citation statistics
But we need these citations in order to attract the funding resources that allow us to do what we are doing

Therefore, if you are a happy ORCA user, please consider citing a few of the papers listed below in the main body of your paper

In addition to the list printed below, the program has created the file _qst2-test_orca.bibtex that contains the list in bibtex format
You can import this file easily into all common literature databanks and citation aid programs

It goes without saying that in many instances, there are alternative algorithms to achieve similar
results as the ones you have gotten from ORCA. It is, of course, also the case that in some instances
ORCA just re-implements algorithms worked out by others. We are fully aware of that and we are also
fully appreciative of our colleagues work. Hence this citation list should not be read as indicating
that the listed papers, which are focused on our own work, are the only ones worth citing. It simply
meant to make it easier for users to cite ORCA specific papers. It is not a substitute for doing your
own literature research and citing the relevant literature in a scientifically appropriate manner.

List of essential papers. We consider these as the minimum necessary citations

  1. Bannwarth, C.; Ehlert, S.; Grimme, S.
     GFN2-xTB鈥擜n Accurate and Broadly Parametrized Self-Consistent Tight-Binding Quantum Chemical Method with Multipole Electrostatics and Density-Dependent Dispersion Contributions
     J. Chem. Theory Comput. 2019 15(3), 1652-1671
     doi.org/10.1021/acs.jctc.8b01176
  2. Neese, F.
     Software update: the ORCA program system, version 6.0
     WIRES Comput. Molec. Sci. 2025 15(1), e70019
     doi.org/10.1002/wcms.70019

List of papers to cite with high priority. The work reported in these papers was absolutely
necessary for this run to complete.
Our perspective: the developers of density functionals and basis sets usually get cited in chemistry papers
Good! But without the algorithms to do something with them, the functionals or basis sets would not do anything.
Hence, in our opinion, the algorithm design and method developments papers are equally worthy of getting cited

  1. Bannwarth, C.; Caldeweyher, E.; Ehlert, S.; Hansen, A.; Pracht, P.; Seibert, J.; Spicher, S.; Grimme, S.
     Extended tight-binding quantum chemistry methods
     WIRES Comput. Molec. Sci. 2020 11(2), e1493
     doi.org/10.1002/wcms.1493
  2. Asgeirsson, V.; Orri Birgisson, B.; Bj枚rnsson, R.; Becker, U.; Neese, F.; Riplinger, C.; Jonsson, H.
     Nudged Elastic Band Method for Molecular Reactions Using Energy-Weighted Springs Combined with Eigenvector Following
     J. Chem. Theory Comput. 2021 17(8), 4929-4945
     doi.org/10.1021/acs.jctc.1c00462
  3. Schmerwitz, Y.L.A.; Asgeirsson, V.; Jonsson, H.
     Improved Initialization of Optimal Path Calculations
     Using Sequential Traversal over the
     Image-Dependent Pair Potential Surface
     J. Chem. Theory Comput. 2023 20(1), 155-163
     doi.org/10.1021/acs.jctc.3c01111

List of suggested additional citations. These are papers that are important in the 'surrounding' of 
of this run, or papers that preceded the highly important papers. If you like your results we are grateful for a citation.

  1. Neese, F.
     The ORCA program system
     WIRES Comput. Molec. Sci. 2012 2(1), 73-78
     doi.org/10.1002/wcms.81
  2. Neese, F.
     Software update: the ORCA program system, version 4.0
     WIRES Comput. Molec. Sci. 2018 8(1), 1-6
     doi.org/10.1002/wcms.1327
  3. Neese, F.; Wennmohs, F.; Becker, U.; Riplinger, C.
     The ORCA quantum chemistry program package
     J. Chem. Phys. 2020 152(22), 224108
     doi.org/10.1063/5.0004608
  4. Neese, F.
     Software update: The ORCA program system鈥擵ersion 5.0
     WIRES Comput. Molec. Sci. 2022 12(1), e1606
     doi.org/10.1002/wcms.1606

List of optional additional citations

  1. Neese, F.
     Approximate second-order SCF convergence for spin unrestricted wavefunctions
     Chem. Phys. Lett. 2000 325(1-3), 93-98
     doi.org/10.1016/s0009-2614(00)00662-x

Timings for individual modules:

Sum of individual times          ...       86.340 sec (=   1.439 min)
Geometry relaxation              ...        0.329 sec (=   0.005 min)   0.4 %
XTB module                       ...        0.594 sec (=   0.010 min)   0.7 %
NEB Iterations                   ...       85.417 sec (=   1.424 min)  98.9 %
                             ****ORCA TERMINATED NORMALLY****
TOTAL RUN TIME: 0 days 0 hours 1 minutes 26 seconds 646 msec
