 Entering Gaussian System, Link 0=E:\g16w\g16.exe
 Input=_qst2-test_xtb.gjf
 Output=D:\xbt-windows\xtbridge\example\TS\_qst2-test_xtb.out
 Initial command:
 E:/g16w/\l1.exe ".\Gau-33376.inp" "D:\xbt-windows\xtbridge\example\TS\_qst2-test_xtb.out" /scrdir=".\"
 Entering Link 1 = E:/g16w/\l1.exe PID=     52616.
  
 Copyright (c) 1988,1990,1992,1993,1995,1998,2003,2009,2016,
            Gaussian, Inc.  All Rights Reserved.
  
 This is part of the Gaussian(R) 16 program.  It is based on
 the Gaussian(R) 09 system (copyright 2009, Gaussian, Inc.),
 the Gaussian(R) 03 system (copyright 2003, Gaussian, Inc.),
 the Gaussian(R) 98 system (copyright 1998, Gaussian, Inc.),
 the Gaussian(R) 94 system (copyright 1995, Gaussian, Inc.),
 the Gaussian 92(TM) system (copyright 1992, Gaussian, Inc.),
 the Gaussian 90(TM) system (copyright 1990, Gaussian, Inc.),
 the Gaussian 88(TM) system (copyright 1988, Gaussian, Inc.),
 the Gaussian 86(TM) system (copyright 1986, Carnegie Mellon
 University), and the Gaussian 82(TM) system (copyright 1983,
 Carnegie Mellon University). Gaussian is a federally registered
 trademark of Gaussian, Inc.
  
 This software contains proprietary and confidential information,
 including trade secrets, belonging to Gaussian, Inc.
  
 This software is provided under written license and may be
 used, copied, transmitted, or stored only in accord with that
 written license.
  
 The following legend is applicable only to US Government
 contracts under FAR:
  
                    RESTRICTED RIGHTS LEGEND
  
 Use, reproduction and disclosure by the US Government is
 subject to restrictions as set forth in subparagraphs (a)
 and (c) of the Commercial Computer Software - Restricted
 Rights clause in FAR 52.227-19.
  
 Gaussian, Inc.
 340 Quinnipiac St., Bldg. 40, Wallingford CT 06492
  
  
 ---------------------------------------------------------------
 Warning -- This program may not be used in any manner that
 competes with the business of Gaussian, Inc. or will provide
 assistance to any competitor of Gaussian, Inc.  The licensee
 of this program is prohibited from giving any competitor of
 Gaussian, Inc. access to this program.  By using this program,
 the user acknowledges that Gaussian, Inc. is engaged in the
 business of creating and licensing software in the field of
 computational chemistry and represents and warrants to the
 licensee that it is not a competitor of Gaussian, Inc. and that
 it will not use this program in any manner prohibited above.
 ---------------------------------------------------------------
  

 Cite this work as:
 Gaussian 16, Revision A.03,
 M. J. Frisch, G. W. Trucks, H. B. Schlegel, G. E. Scuseria, 
 M. A. Robb, J. R. Cheeseman, G. Scalmani, V. Barone, 
 G. A. Petersson, H. Nakatsuji, X. Li, M. Caricato, A. V. Marenich, 
 J. Bloino, B. G. Janesko, R. Gomperts, B. Mennucci, H. P. Hratchian, 
 J. V. Ortiz, A. F. Izmaylov, J. L. Sonnenberg, D. Williams-Young, 
 F. Ding, F. Lipparini, F. Egidi, J. Goings, B. Peng, A. Petrone, 
 T. Henderson, D. Ranasinghe, V. G. Zakrzewski, J. Gao, N. Rega, 
 G. Zheng, W. Liang, M. Hada, M. Ehara, K. Toyota, R. Fukuda, 
 J. Hasegawa, M. Ishida, T. Nakajima, Y. Honda, O. Kitao, H. Nakai, 
 T. Vreven, K. Throssell, J. A. Montgomery, Jr., J. E. Peralta, 
 F. Ogliaro, M. J. Bearpark, J. J. Heyd, E. N. Brothers, K. N. Kudin, 
 V. N. Staroverov, T. A. Keith, R. Kobayashi, J. Normand, 
 K. Raghavachari, A. P. Rendell, J. C. Burant, S. S. Iyengar, 
 J. Tomasi, M. Cossi, J. M. Millam, M. Klene, C. Adamo, R. Cammi, 
 J. W. Ochterski, R. L. Martin, K. Morokuma, O. Farkas, 
 J. B. Foresman, and D. J. Fox, Gaussian, Inc., Wallingford CT, 2016.
 
 ******************************************
 Gaussian 16:  EM64W-G16RevA.03 17-Dec-2016
                24-Jun-2026 
 ******************************************
 %chk=D:\test18\qst2-test.chk
 ----------------------------------------------------------------------
 #P opt(qst2,nomicro,noeigentest) geom=connectivity external='D:\xbt-wi
 ndows\gau_xtb_client.bat'
 ----------------------------------------------------------------------
 1/5=1,11=1,18=20,26=1,27=202,38=1,57=2/1,3;
 2/9=110,12=2,17=6,18=5,40=1/2;
 3/11=9,25=1,30=1,41=9900000,43=2,71=1/1;
 4/20=17,22=1,24=3,113=1,114=1/2;
 6/7=2,8=2,9=2,10=2/1;
 7/44=-1/16;
 1/5=1,11=1,18=20,26=1,27=202/3(2);
 2/9=110/2;
 99//99;
 2/9=110/2;
 3/11=9,25=1,30=1,41=9900000,43=2,71=1/1;
 4/16=2,20=17,22=1,24=3,113=1,114=1/2;
 7/44=-1/16;
 1/5=1,11=1,18=20,26=1,27=202/3(-4);
 2/9=110/2;
 6/7=2,8=2,9=2,10=2/1;
 99//99;
 Leave Link    1 at Wed Jun 24 14:07:11 2026, MaxMem=           0 cpu:               0.0 elap:               0.1
 (Enter E:/g16w/\l101.exe)
 -------------------
 Title Card Required
 -------------------
 Symbolic Z-matrix:
 Charge =  0 Multiplicity = 1
 C                    -0.1429    1.35004  -1.0833 
 H                     0.40945   0.45225  -0.89948 
 H                    -1.21135   1.3183   -1.1313 
 C                     0.50613   2.52718  -1.25551 
 H                    -0.04621   3.42497  -1.43933 
 H                     1.57458   2.55892  -1.20751 
 C                     1.41163   2.57184  -3.08423 
 H                     0.34303   2.51926  -3.06958 
 H                     1.89699   3.51008  -3.25465 
 C                     2.15246   1.4542   -2.88769 
 H                     3.22107   1.50679  -2.90235 
 C                     1.45391   0.10384  -2.64242 
 H                     2.03883  -0.77655  -2.476 
 C                     0.10092   0.02674  -2.63664 
 H                    -0.4893    0.90369  -2.80246 
 H                    -0.37876  -0.91431  -2.46567 
 
 Add virtual bond connecting atoms C7         and H6         Dist= 3.56D+00.
 Add virtual bond connecting atoms H8         and C4         Dist= 3.44D+00.
 Add virtual bond connecting atoms H8         and H5         Dist= 3.60D+00.
 Add virtual bond connecting atoms C14        and H2         Dist= 3.43D+00.
 Add virtual bond connecting atoms H15        and C1         Dist= 3.42D+00.
 -------------------
 Title Card Required
 -------------------
 Symbolic Z-matrix:
 Charge =  0 Multiplicity = 1
 C                     0.83963   1.46293  -0.80108 
 H                     1.70948   1.59369  -0.19185 
 H                    -0.02677   1.42008  -0.17466 
 C                     0.78634   2.63568  -1.80964 
 H                     0.33433   3.47873  -1.33022 
 H                     1.77771   2.88771  -2.12358 
 C                     0.0568    2.19938  -3.10462 
 H                    -0.91239   1.79266  -2.90422 
 H                    -0.05257   3.03624  -3.76235 
 C                     1.03162   1.14894  -3.74845 
 H                     1.19841   1.08982  -4.80372 
 C                     1.6709    0.34667  -2.85943 
 H                     2.62609  -0.10804  -3.01991 
 C                     0.83318   0.17949  -1.61717 
 H                    -0.1702    0.03354  -1.95897 
 H                     1.13792  -0.66026  -1.02823 
 
 ITRead=  0  0  0  0  0  0  0  0  0  0  0  0  0  0  0  0
 MicOpt= -1 -1 -1 -1 -1 -1 -1 -1 -1 -1 -1 -1 -1 -1 -1 -1
 Iteration  1 RMS(Cart)=  0.08573494 RMS(Int)=  0.49337688
 Iteration  2 RMS(Cart)=  0.04573811 RMS(Int)=  0.49742276
 Iteration  3 RMS(Cart)=  0.02468595 RMS(Int)=  0.50724871
 Iteration  4 RMS(Cart)=  0.00646561 RMS(Int)=  0.51119655
 Iteration  5 RMS(Cart)=  0.00169745 RMS(Int)=  0.51236456
 Iteration  6 RMS(Cart)=  0.00045912 RMS(Int)=  0.51270160
 Iteration  7 RMS(Cart)=  0.00012896 RMS(Int)=  0.51279891
 Iteration  8 RMS(Cart)=  0.00003707 RMS(Int)=  0.51282718
 Iteration  9 RMS(Cart)=  0.00001083 RMS(Int)=  0.51283546
 Iteration 10 RMS(Cart)=  0.00000322 RMS(Int)=  0.51283791
 Iteration 11 RMS(Cart)=  0.00000097 RMS(Int)=  0.51283865
 Iteration  1 RMS(Cart)=  0.00000030 RMS(Int)=  0.51283887
 Iteration  1 RMS(Cart)=  0.00000009 RMS(Int)=  0.51283893
 Iteration  1 RMS(Cart)=  0.00000003 RMS(Int)=  0.51283895
 Iteration  1 RMS(Cart)=  0.00000001 RMS(Int)=  0.51283896
 Iteration  1 RMS(Cart)=  0.00000000 RMS(Int)=  0.51283896
 Iteration  1 RMS(Cart)=  0.00000000 RMS(Int)=  0.51283896
 Iteration  1 RMS(Cart)=  0.00000000 RMS(Int)=  0.51283896
 Iteration  1 RMS(Cart)=  0.00000000 RMS(Int)=  0.51283896
 Iteration  1 RMS(Cart)=  0.00000000 RMS(Int)=  0.51283896
   Var     Old X     New X   DQ Goal   DQ Act.  Rel. Err.   Overall
     1    2.0220    1.9936    0.0000   -0.0284
     2    2.0220    2.0220    0.0000    0.0000
     3    2.5610    2.7479    0.1819    0.1870    1.0279
     4    3.8836    3.4216   -0.5047   -0.4620    0.9153
     5    3.4197    3.6706    0.2729    0.2509    0.9192
     6    3.4297    3.7944    0.3551    0.3647    1.0271
     7    2.0220    2.0419    0.0000    0.0199
     8    2.0220    2.0180    0.0000   -0.0040
     9    3.8571    3.4078   -0.4649   -0.4493    0.9664
    10    3.4419    3.8323    0.3479    0.3904    1.1219
    11    3.6002    4.2545    0.6773    0.6543    0.9661
    12    3.5599    3.7304    0.2015    0.1705    0.8460
    13    2.0220    2.0002    0.0000   -0.0218
    14    2.0220    2.0220    0.0000    0.0000
    15    2.5610    2.7616    0.2039    0.2006    0.9837
    16    2.0220    2.0220    0.0000    0.0000
    17    2.9102    2.7334   -0.1725   -0.1768    1.0250
    18    2.0220    2.0220    0.0000    0.0000
    19    2.5610    2.7032    0.1440    0.1422    0.9873
    20    2.0220    2.0099    0.0000   -0.0121
    21    2.0220    2.0220    0.0000    0.0000
    22    2.0924    2.1064   -0.0928    0.0140   -0.1507
    23    2.0984    2.0280   -0.1081   -0.0703    0.6508
    24    1.0796    1.4765    0.4580    0.3969    0.8667
    25    1.6259    2.0390    0.4267    0.4131    0.9681
    26    2.0924    2.0488   -0.0638   -0.0436    0.6835
    27    1.6363    1.7107    0.1075    0.0744    0.6915
    28    1.3273    1.3451    0.0747    0.0178    0.2381
    29    1.9893    1.9445   -0.0624   -0.0449    0.7198
    30    1.7571    1.7342   -0.0229   -0.0229    0.9991
    31    1.5153    1.1146   -0.4152   -0.4007    0.9650
    32    2.0984    2.0221   -0.1011   -0.0762    0.7536
    33    2.0924    2.0422   -0.0885   -0.0502    0.5670
    34    1.9234    1.9392    0.0012    0.0158
    35    1.6508    1.6242   -0.0096   -0.0266
    36    2.0924    2.1118   -0.0888    0.0194   -0.2179
    37    1.6276    1.7670    0.1760    0.1395    0.7923
    38    1.1555    1.4418    0.3378    0.2862    0.8473
    39    1.7054    1.9870    0.2950    0.2815    0.9544
    40    1.4396    1.1336   -0.3223   -0.3060    0.9492
    41    1.0969    1.5027    0.4303    0.4059    0.9432
    42    1.9424    1.9227   -0.0114   -0.0197    1.7250
    43    1.6655    1.7452    0.0732    0.0797    1.0890
    44    1.6433    2.0662    0.4115    0.4230    1.0280
    45    1.6966    1.6718   -0.0054   -0.0247
    46    1.3721    1.4040    0.0503    0.0320    0.6355
    47    2.0924    2.0450   -0.0980   -0.0474    0.4834
    48    2.0984    2.1128   -0.0664    0.0145   -0.2178
    49    2.0924    2.0091   -0.0903   -0.0833    0.9228
    50    1.4947    1.0912   -0.3901   -0.4035    1.0343
    51    1.7644    1.3573   -0.3956   -0.4071    1.0290
    52    2.0984    2.1024    0.0202    0.0040    0.1982
    53    2.0924    2.0796   -0.0446   -0.0128    0.2862
    54    2.0924    2.1012    0.0243    0.0088    0.3600
    55    2.0924    2.1253    0.0445    0.0328    0.7382
    56    2.0984    2.0240   -0.0885   -0.0743    0.8403
    57    2.0924    2.1325    0.0440    0.0401    0.9128
    58    1.6559    1.7781    0.1342    0.1222    0.9103
    59    1.0746    1.4047    0.3954    0.3301    0.8346
    60    1.9740    1.9222   -0.0144   -0.0517    3.5957
    61    1.3909    1.5877    0.2123    0.1969    0.9274
    62    1.6208    1.9478    0.3428    0.3270    0.9540
    63    1.7006    1.5746   -0.0476   -0.1260    2.6465
    64    2.0984    2.0690   -0.1255   -0.0293    0.2338
    65    2.0924    2.0567   -0.0647   -0.0357    0.5520
    66    2.0924    2.0649   -0.0896   -0.0275    0.3073
    67    1.5201    1.1664   -0.3769   -0.3537    0.9385
    68    1.3471    1.6777    0.3621    0.3306    0.9129
    69   -1.7945   -1.9413   -0.1382   -0.1469    1.0626
    70    0.0257    0.0984    0.0922    0.0727    0.7882
    71    3.1416   -2.3551   -2.2974   -5.4967    2.3926
    72    0.0000    0.3117    0.3202    0.3117    0.9736
    73    1.2825    1.9245    0.6837    0.6420    0.9391
    74    1.7736    2.3850    0.6260    0.6115    0.9768
    75    0.0000    0.3252    0.3259    0.3252    0.9979
    76   -3.1416    2.9921    2.9435    6.1337    2.0838
    77   -1.8591   -1.6783    0.1653    0.1808    1.0935
    78   -1.3680   -1.2178    0.1077    0.1502    1.3949
    79    1.9159    2.2770    0.3807    0.3611    0.9484
    80   -1.2257   -1.3394   -0.1434   -0.1137    0.7928
    81    0.0568    0.2734    0.2201    0.2166    0.9842
    82    1.3952    1.7252    0.3917    0.3299    0.8422
    83   -1.7463   -1.8912   -0.1323   -0.1448    1.0943
    84    0.0272    0.1821    0.1735    0.1549    0.8929
    85   -1.0636   -1.2560   -0.1721   -0.1925    1.1186
    86    3.0922    2.9785   -0.1083   -0.1137    1.0494
    87    1.1261    0.9402   -0.1704   -0.1859    1.0911
    88    3.0888    2.9277   -0.1579   -0.1611    1.0200
    89    0.9614    0.8791   -0.0942   -0.0823    0.8739
    90   -1.0047   -1.1593   -0.1563   -0.1545    0.9890
    91    0.9045    0.7695   -0.1157   -0.1350    1.1670
    92   -1.2229   -1.2792   -0.0520   -0.0563    1.0824
    93    3.0942    2.9657   -0.1140   -0.1285    1.1267
    94   -0.0436   -0.1821   -0.1783   -0.1385    0.7769
    95   -2.1386   -2.2430   -0.1317   -0.1044    0.7924
    96    2.0781    2.0132   -0.0767   -0.0649    0.8457
    97    2.0546    1.9454   -0.0899   -0.1092    1.2150
    98   -0.0435   -0.1731   -0.1514   -0.1296    0.8563
    99   -2.1491   -2.2809   -0.1369   -0.1318    0.9630
   100    1.7537    1.9193    0.1576    0.1656    1.0507
   101   -1.3879   -1.7228   -0.3722   -0.3349    0.8998
   102    0.0112    0.0535    0.0356    0.0422    1.1874
   103    1.1183    1.0203   -0.0875   -0.0980    1.1192
   104    3.1018    3.0720   -0.0231   -0.0298    1.2907
   105   -0.9989   -1.0892   -0.0923   -0.0902    0.9779
   106   -1.0447   -1.1370   -0.0719   -0.0922    1.2824
   107    0.9388    0.9147   -0.0075   -0.0241
   108    3.1212    3.0367   -0.0767   -0.0845    1.1022
   109    3.1203    3.0476   -0.0576   -0.0727    1.2618
   110   -1.1793   -1.1839    0.0068   -0.0046
   111    1.0031    0.9381   -0.0624   -0.0650    1.0420
   112   -2.1318   -2.2206   -0.0729   -0.0888    1.2172
   113   -0.0196   -0.1019   -0.0785   -0.0823    1.0489
   114   -0.0190   -0.1066   -0.0920   -0.0877    0.9526
   115    2.0902    2.0786   -0.0014   -0.0116
   116   -2.1137   -2.2053   -0.0891   -0.0916    1.0275
   117    0.0111    0.0573    0.0482    0.0462    0.9575
   118    0.5279    0.5096    0.0067   -0.0184
   119   -1.7476   -1.9319   -0.1890   -0.1843    0.9750
   120   -1.2308   -1.4796   -0.2306   -0.2489    1.0793
   121    1.3940    1.7334    0.3211    0.3394    1.0570
   122    1.9108    2.1857    0.2796    0.2749    0.9831
   123   -2.0661   -2.2582   -0.1994   -0.1922    0.9639
   124    1.0755    0.8747   -0.2136   -0.2008    0.9401
   125   -1.6027   -1.8041   -0.2355   -0.2014    0.8554
   126    1.5389    1.3289   -0.2497   -0.2101    0.8412
   127    3.1416    2.4287   -0.7222   -0.7129    0.9870
   128    0.0000   -0.7215   -0.7365   -0.7215    0.9797
   129    0.0000   -0.1992   -0.2077   -0.1992    0.9593
   130    3.1416    2.9338   -0.2219   -0.2078    0.9367
   131   -3.1293   -2.8408    0.2347    0.2884    1.2290
   132    0.0123    0.2456    0.2391    0.2333    0.9758
   133    0.0123    0.2921    0.2204    0.2798    1.2694
   134   -3.1293   -2.9046    0.2248    0.2246    0.9993
   135   -1.0435   -1.1207   -0.1114   -0.0772    0.6936
   136   -1.5236   -1.6414   -0.1062   -0.1178    1.1097
   137    0.0000    0.3721    0.3726    0.3721    0.9985
   138   -3.1416    3.0577    2.9879    6.1993    2.0748
   139    2.0981    1.9655   -0.1070   -0.1327    1.2398
   140    1.6180    1.4448   -0.1018   -0.1732    1.7018
   141    3.1416   -2.8249   -2.7646   -5.9665    2.1582
   142    0.0000   -0.1393   -0.1494   -0.1393    0.9324
   143    0.0257    0.0915    0.0664    0.0658    0.9907
   144   -1.3659   -1.7177   -0.3427   -0.3518    1.0266
   145    1.7757    1.8820    0.1675    0.1063    0.6346
 NAtoms=     16 NQM=       16 NQMF=       0 NMMI=      0 NMMIF=      0
                NMic=       0 NMicF=      0.
                    Isotopes and Nuclear Properties:
 (Nuclear quadrupole moments (NQMom) in fm**2, nuclear magnetic moments (NMagM)
  in nuclear magnetons)

  Atom         1           2           3           4           5           6           7           8           9          10
 IAtWgt=          12           1           1          12           1           1          12           1           1          12
 AtmWgt=  12.0000000   1.0078250   1.0078250  12.0000000   1.0078250   1.0078250  12.0000000   1.0078250   1.0078250  12.0000000
 NucSpn=           0           1           1           0           1           1           0           1           1           0
 AtZEff=   0.0000000   0.0000000   0.0000000   0.0000000   0.0000000   0.0000000   0.0000000   0.0000000   0.0000000   0.0000000
 NQMom=    0.0000000   0.0000000   0.0000000   0.0000000   0.0000000   0.0000000   0.0000000   0.0000000   0.0000000   0.0000000
 NMagM=    0.0000000   2.7928460   2.7928460   0.0000000   2.7928460   2.7928460   0.0000000   2.7928460   2.7928460   0.0000000
 AtZNuc=   6.0000000   1.0000000   1.0000000   6.0000000   1.0000000   1.0000000   6.0000000   1.0000000   1.0000000   6.0000000

  Atom        11          12          13          14          15          16
 IAtWgt=           1          12           1          12           1           1
 AtmWgt=   1.0078250  12.0000000   1.0078250  12.0000000   1.0078250   1.0078250
 NucSpn=           1           0           1           0           1           1
 AtZEff=   0.0000000   0.0000000   0.0000000   0.0000000   0.0000000   0.0000000
 NQMom=    0.0000000   0.0000000   0.0000000   0.0000000   0.0000000   0.0000000
 NMagM=    2.7928460   0.0000000   2.7928460   0.0000000   2.7928460   2.7928460
 AtZNuc=   1.0000000   6.0000000   1.0000000   6.0000000   1.0000000   1.0000000
 Leave Link  101 at Wed Jun 24 14:07:12 2026, MaxMem=   104857600 cpu:               1.0 elap:               0.3
 (Enter E:/g16w/\l103.exe)

 GradGradGradGradGradGradGradGradGradGradGradGradGradGradGradGradGradGrad
 Berny optimization.
 Initialization pass.
                           ----------------------------
                           !    Initial Parameters    !
                           ! (Angstroms and Degrees)  !
 --------------------------                            --------------------------
 ! Name  Definition         TS        Reactant Product Derivative Info.         !
 --------------------------------------------------------------------------------
 ! R1    R(1,2)             1.055     1.07      1.07   estimate D2E/DX2         !
 ! R2    R(1,3)             1.07      1.07      1.07   estimate D2E/DX2         !
 ! R3    R(1,4)             1.4541    1.3552    1.5477 estimate D2E/DX2         !
 ! R4    R(1,14)            1.8106    2.0551    1.5209 estimate D2E/DX2         !
 ! R5    R(1,15)            1.9424    1.8096    2.0985 estimate D2E/DX2         !
 ! R6    R(2,14)            2.0079    1.8149    2.1908 estimate D2E/DX2         !
 ! R7    R(4,5)             1.0805    1.07      1.07   estimate D2E/DX2         !
 ! R8    R(4,6)             1.0679    1.07      1.07   estimate D2E/DX2         !
 ! R9    R(4,7)             1.8034    2.0411    1.5491 estimate D2E/DX2         !
 ! R10   R(4,8)             2.028     1.8214    2.1896 estimate D2E/DX2         !
 ! R11   R(5,8)             2.2514    1.9051    2.6219 estimate D2E/DX2         !
 ! R12   R(6,7)             1.974     1.8838    2.0971 estimate D2E/DX2         !
 ! R13   R(7,8)             1.0584    1.07      1.07   estimate D2E/DX2         !
 ! R14   R(7,9)             1.07      1.07      1.07   estimate D2E/DX2         !
 ! R15   R(7,10)            1.4614    1.3552    1.571  estimate D2E/DX2         !
 ! R16   R(10,11)           1.07      1.07      1.07   estimate D2E/DX2         !
 ! R17   R(10,12)           1.4464    1.54      1.3575 estimate D2E/DX2         !
 ! R18   R(12,13)           1.07      1.07      1.07   estimate D2E/DX2         !
 ! R19   R(12,14)           1.4304    1.3552    1.5076 estimate D2E/DX2         !
 ! R20   R(14,15)           1.0636    1.07      1.07   estimate D2E/DX2         !
 ! R21   R(14,16)           1.07      1.07      1.07   estimate D2E/DX2         !
 ! A1    A(2,1,3)         120.6872  119.8865  109.2577 estimate D2E/DX2         !
 ! A2    A(2,1,4)         116.1975  120.2269  107.844  estimate D2E/DX2         !
 ! A3    A(2,1,14)         84.5984   61.8572  114.3356 estimate D2E/DX2         !
 ! A4    A(2,1,15)        116.8253   93.1566  142.0561 estimate D2E/DX2         !
 ! A5    A(3,1,4)         117.3895  119.8865  112.5796 estimate D2E/DX2         !
 ! A6    A(3,1,14)         98.0134   93.7532  106.0753 estimate D2E/DX2         !
 ! A7    A(3,1,15)         77.0685   76.0493   84.6118 estimate D2E/DX2         !
 ! A8    A(4,1,14)        111.4092  113.9811  106.8348 estimate D2E/DX2         !
 ! A9    A(4,1,15)         99.3614  100.6724   98.048  estimate D2E/DX2         !
 ! A10   A(1,2,14)         63.8629   86.8202   39.2399 estimate D2E/DX2         !
 ! A11   A(1,4,5)         115.8602  120.2269  108.6378 estimate D2E/DX2         !
 ! A12   A(1,4,6)         117.0101  119.8865  109.7412 estimate D2E/DX2         !
 ! A13   A(1,4,7)         111.1085  110.2016  110.3384 estimate D2E/DX2         !
 ! A14   A(1,4,8)          93.058    94.583    93.4822 estimate D2E/DX2         !
 ! A15   A(5,4,6)         120.9953  119.8865  109.7112 estimate D2E/DX2         !
 ! A16   A(5,4,7)         101.243    93.2523  113.4241 estimate D2E/DX2         !
 ! A17   A(6,4,7)          82.6068   66.2065  104.9167 estimate D2E/DX2         !
 ! A18   A(6,4,8)         113.8442   97.7143  131.5148 estimate D2E/DX2         !
 ! A19   A(4,6,7)          64.9504   82.4803   45.5429 estimate D2E/DX2         !
 ! A20   A(4,7,8)          86.0984   62.8449  112.1526 estimate D2E/DX2         !
 ! A21   A(4,7,9)         110.1619  111.2915  109.9818 estimate D2E/DX2         !
 ! A22   A(4,7,10)         99.99     95.4245  103.8092 estimate D2E/DX2         !
 ! A23   A(6,7,8)         118.3872   94.1521  141.3018 estimate D2E/DX2         !
 ! A24   A(6,7,9)          95.7897   97.2066   96.5875 estimate D2E/DX2         !
 ! A25   A(6,7,10)         80.4445   78.6138   84.3754 estimate D2E/DX2         !
 ! A26   A(8,7,9)         117.1716  119.8865  108.6528 estimate D2E/DX2         !
 ! A27   A(8,7,10)        121.0554  120.2269  112.6208 estimate D2E/DX2         !
 ! A28   A(9,7,10)        115.1125  119.8865  109.5393 estimate D2E/DX2         !
 ! A29   A(4,8,7)          62.5213   85.641    40.937  estimate D2E/DX2         !
 ! A30   A(5,8,7)          77.7689  101.093    55.758  estimate D2E/DX2         !
 ! A31   A(7,10,11)       120.4558  120.2269  122.5361 estimate D2E/DX2         !
 ! A32   A(7,10,12)       119.1544  119.8865  114.7709 estimate D2E/DX2         !
 ! A33   A(11,10,12)      120.3879  119.8865  122.672  estimate D2E/DX2         !
 ! A34   A(10,12,13)      121.7679  119.8865  124.9839 estimate D2E/DX2         !
 ! A35   A(10,12,14)      115.9677  120.2269  110.0898 estimate D2E/DX2         !
 ! A36   A(13,12,14)      122.1857  119.8865  124.9242 estimate D2E/DX2         !
 ! A37   A(1,14,12)       101.8771   94.8784  110.2545 estimate D2E/DX2         !
 ! A38   A(1,14,15)        80.4834   61.5728  106.8867 estimate D2E/DX2         !
 ! A39   A(1,14,16)       110.1363  113.1006  111.4518 estimate D2E/DX2         !
 ! A40   A(2,14,12)        90.9709   79.6902  104.019  estimate D2E/DX2         !
 ! A41   A(2,14,15)       111.5996   92.8634  132.1423 estimate D2E/DX2         !
 ! A42   A(2,14,16)        90.219    97.4383   91.9826 estimate D2E/DX2         !
 ! A43   A(12,14,15)      118.5455  120.2269  105.8413 estimate D2E/DX2         !
 ! A44   A(12,14,16)      117.8415  119.8865  112.4766 estimate D2E/DX2         !
 ! A45   A(15,14,16)      118.3097  119.8865  109.6241 estimate D2E/DX2         !
 ! A46   A(1,15,14)        66.8306   87.0957   43.9103 estimate D2E/DX2         !
 ! D1    D(3,1,2,14)       96.1258   77.1854  118.6803 estimate D2E/DX2         !
 ! D2    D(4,1,2,14)     -111.2297 -102.8146 -118.6533 estimate D2E/DX2         !
 ! D3    D(15,1,2,14)       5.639     1.4732   12.0434 estimate D2E/DX2         !
 ! D4    D(2,1,4,5)      -134.9391  180.0     -83.2569 estimate D2E/DX2         !
 ! D5    D(2,1,4,6)        17.8612    0.0      36.6906 estimate D2E/DX2         !
 ! D6    D(2,1,4,7)       110.2661   73.4798  151.8219 estimate D2E/DX2         !
 ! D7    D(2,1,4,8)       136.6525  101.6181  173.3546 estimate D2E/DX2         !
 ! D8    D(3,1,4,5)        18.6341    0.0      37.348  estimate D2E/DX2         !
 ! D9    D(3,1,4,6)       171.4344 -180.0     157.2955 estimate D2E/DX2         !
 ! D10   D(3,1,4,7)       -96.1607 -106.5202  -87.5731 estimate D2E/DX2         !
 ! D11   D(3,1,4,8)       -69.7743  -78.3819  -66.0405 estimate D2E/DX2         !
 ! D12   D(14,1,4,5)      130.4599  109.7724  153.3971 estimate D2E/DX2         !
 ! D13   D(14,1,4,6)      -76.7399  -70.2276  -86.6554 estimate D2E/DX2         !
 ! D14   D(14,1,4,7)       15.6651    3.2522   28.476  estimate D2E/DX2         !
 ! D15   D(15,1,4,5)       98.8448   79.9415  124.8312 estimate D2E/DX2         !
 ! D16   D(15,1,4,6)     -108.355  -100.0585 -115.2213 estimate D2E/DX2         !
 ! D17   D(15,1,4,8)       10.4364    1.5596   21.4427 estimate D2E/DX2         !
 ! D18   D(2,1,14,12)     -71.966   -60.937   -80.6572 estimate D2E/DX2         !
 ! D19   D(2,1,14,15)     170.6555  177.1703  164.7544 estimate D2E/DX2         !
 ! D20   D(2,1,14,16)      53.8673   64.5203   44.993  estimate D2E/DX2         !
 ! D21   D(3,1,14,12)     167.7444  176.9754  158.876  estimate D2E/DX2         !
 ! D22   D(3,1,14,15)      50.3659   55.0826   44.2876 estimate D2E/DX2         !
 ! D23   D(3,1,14,16)     -66.4222  -57.5673  -75.4739 estimate D2E/DX2         !
 ! D24   D(4,1,14,12)      44.0886   51.8258   38.566  estimate D2E/DX2         !
 ! D25   D(4,1,14,15)     -73.2899  -70.067   -76.0224 estimate D2E/DX2         !
 ! D26   D(4,1,14,16)     169.9219  177.2831  164.2162 estimate D2E/DX2         !
 ! D27   D(2,1,15,14)     -10.4364   -2.4987  -22.9329 estimate D2E/DX2         !
 ! D28   D(3,1,15,14)    -128.5138 -122.5324 -137.6285 estimate D2E/DX2         !
 ! D29   D(4,1,15,14)     115.3487  119.0658  110.2748 estimate D2E/DX2         !
 ! D30   D(1,2,14,12)     111.4637  117.7225  107.4197 estimate D2E/DX2         !
 ! D31   D(1,2,14,15)      -9.9175   -2.4914  -19.8371 estimate D2E/DX2         !
 ! D32   D(1,2,14,16)    -130.6861 -123.1333 -138.8193 estimate D2E/DX2         !
 ! D33   D(1,4,6,7)       109.9665  100.4797  118.5381 estimate D2E/DX2         !
 ! D34   D(5,4,6,7)       -98.7083  -79.5203 -122.1709 estimate D2E/DX2         !
 ! D35   D(8,4,6,7)         3.063     0.6425    4.7196 estimate D2E/DX2         !
 ! D36   D(1,4,7,8)        58.4593   64.0719   54.0422 estimate D2E/DX2         !
 ! D37   D(1,4,7,9)       176.0113  177.7211  175.0717 estimate D2E/DX2         !
 ! D38   D(1,4,7,10)      -62.4054  -57.2354  -67.8091 estimate D2E/DX2         !
 ! D39   D(5,4,7,8)       -65.1438  -59.8595  -68.1009 estimate D2E/DX2         !
 ! D40   D(5,4,7,9)        52.4083   53.7897   52.9286 estimate D2E/DX2         !
 ! D41   D(5,4,7,10)      173.9916  178.8332  170.0478 estimate D2E/DX2         !
 ! D42   D(6,4,7,8)       174.6144  178.7819  172.1764 estimate D2E/DX2         !
 ! D43   D(6,4,7,9)       -67.8336  -67.5689  -66.7941 estimate D2E/DX2         !
 ! D44   D(6,4,7,10)       53.7497   57.4746   50.3251 estimate D2E/DX2         !
 ! D45   D(1,4,8,7)      -127.2298 -122.1426 -130.5015 estimate D2E/DX2         !
 ! D46   D(6,4,8,7)        -5.8408   -1.1247  -10.1174 estimate D2E/DX2         !
 ! D47   D(4,6,7,8)        -6.1101   -1.0867  -11.6335 estimate D2E/DX2         !
 ! D48   D(4,6,7,9)       119.0966  119.7607  119.5986 estimate D2E/DX2         !
 ! D49   D(4,6,7,10)     -126.3521 -121.1042 -131.3187 estimate D2E/DX2         !
 ! D50   D(6,7,8,4)         3.281     0.6347    6.1623 estimate D2E/DX2         !
 ! D51   D(6,7,8,5)        29.1958   30.2487   31.0152 estimate D2E/DX2         !
 ! D52   D(9,7,8,4)      -110.6906 -100.1309 -121.7924 estimate D2E/DX2         !
 ! D53   D(9,7,8,5)       -84.7758  -70.5169  -96.9395 estimate D2E/DX2         !
 ! D54   D(10,7,8,4)       99.3174   79.8691  116.669  estimate D2E/DX2         !
 ! D55   D(10,7,8,5)      125.2321  109.4831  141.5219 estimate D2E/DX2         !
 ! D56   D(4,7,10,11)    -129.3881 -118.3767 -141.2238 estimate D2E/DX2         !
 ! D57   D(4,7,10,12)      50.1178   61.6233   37.146  estimate D2E/DX2         !
 ! D58   D(6,7,10,11)    -103.3666  -91.8255 -118.8086 estimate D2E/DX2         !
 ! D59   D(6,7,10,12)      76.1393   88.1745   59.5612 estimate D2E/DX2         !
 ! D60   D(8,7,10,11)     139.1552  180.0      97.2372 estimate D2E/DX2         !
 ! D61   D(8,7,10,12)     -41.3389    0.0     -84.3929 estimate D2E/DX2         !
 ! D62   D(9,7,10,11)     -11.4138    0.0     -23.7964 estimate D2E/DX2         !
 ! D63   D(9,7,10,12)     168.0921  180.0     154.5735 estimate D2E/DX2         !
 ! D64   D(7,10,12,13)   -162.7684 -179.2941 -152.4018 estimate D2E/DX2         !
 ! D65   D(7,10,12,14)     14.0711    0.7059   28.0998 estimate D2E/DX2         !
 ! D66   D(11,10,12,13)    16.7379    0.7059   25.9656 estimate D2E/DX2         !
 ! D67   D(11,10,12,14)  -166.4227 -179.2941 -153.5328 estimate D2E/DX2         !
 ! D68   D(10,12,14,1)    -64.2122  -59.7865  -72.5484 estimate D2E/DX2         !
 ! D69   D(10,12,14,2)    -94.0435  -87.2934  -99.4588 estimate D2E/DX2         !
 ! D70   D(10,12,14,15)    21.3187    0.0      42.7007 estimate D2E/DX2         !
 ! D71   D(10,12,14,16)   175.1959 -180.0     162.3839 estimate D2E/DX2         !
 ! D72   D(13,12,14,1)    112.6128  120.2135  107.9528 estimate D2E/DX2         !
 ! D73   D(13,12,14,2)     82.7815   92.7066   81.0424 estimate D2E/DX2         !
 ! D74   D(13,12,14,15)  -161.8563  180.0    -136.7981 estimate D2E/DX2         !
 ! D75   D(13,12,14,16)    -7.9791    0.0     -17.1149 estimate D2E/DX2         !
 ! D76   D(2,14,15,1)       5.2411    1.4724    9.0804 estimate D2E/DX2         !
 ! D77   D(12,14,15,1)    -98.4166  -78.2598 -117.5299 estimate D2E/DX2         !
 ! D78   D(16,14,15,1)    107.829   101.7402  120.9311 estimate D2E/DX2         !
 --------------------------------------------------------------------------------
 Trust Radius=3.00D-01 FncErr=1.00D-07 GrdErr=1.00D-07 EigMax=2.50D+02 EigMin=1.00D-04
 Number of steps in this run=    100 maximum allowed number of steps=    100.
 Search for a saddle point of order  1.
 GradGradGradGradGradGradGradGradGradGradGradGradGradGradGradGradGradGrad

 Leave Link  103 at Wed Jun 24 14:07:12 2026, MaxMem=   104857600 cpu:               0.0 elap:               0.0
 (Enter E:/g16w/\l202.exe)
                          Input orientation:                          
 ---------------------------------------------------------------------
 Center     Atomic      Atomic             Coordinates (Angstroms)
 Number     Number       Type             X           Y           Z
 ---------------------------------------------------------------------
      1          6           0       -0.203255    1.268331   -1.188238
      2          1           0        0.189647    0.511073   -0.567620
      3          1           0       -1.259382    1.364526   -1.330514
      4          6           0        0.601954    2.471912   -1.320672
      5          1           0        0.067410    3.407612   -1.241771
      6          1           0        1.630145    2.400712   -1.041236
      7          6           0        1.302385    2.605709   -2.977047
      8          1           0        0.302458    2.582625   -3.323340
      9          1           0        1.833713    3.528817   -3.079324
     10          6           0        2.135287    1.405109   -2.997827
     11          1           0        3.163443    1.463255   -3.288366
     12          6           0        1.555024    0.138140   -2.610156
     13          1           0        2.162313   -0.702751   -2.347473
     14          6           0        0.127186    0.100862   -2.532204
     15          1           0       -0.430279    0.831737   -3.067253
     16          1           0       -0.337563   -0.840415   -2.325066
 ---------------------------------------------------------------------
                    Distance matrix (angstroms):
                    1          2          3          4          5
     1  C    0.000000
     2  H    1.054978   0.000000
     3  H    1.070000   1.846638   0.000000
     4  C    1.454134   2.140554   2.165865   0.000000
     5  H    2.157000   2.976467   2.437715   1.080508   0.000000
     6  H    2.159919   2.422825   3.083298   1.067862   1.869813
     7  C    2.693578   3.380979   3.288503   1.803353   2.275828
     8  H    2.557689   3.449354   2.809709   2.027963   2.251395
     9  H    3.582630   4.256570   4.160497   2.393144   2.551689
    10  C    2.960084   3.238938   3.782242   2.510384   3.371923
    11  H    3.972806   4.141567   4.837801   3.383849   4.189809
    12  C    2.527989   2.485013   3.326017   2.831537   3.843816
    13  H    3.290122   2.921071   4.125026   3.683412   4.744078
    14  C    1.810641   2.007925   2.227886   2.704643   3.550125
    15  H    1.942383   2.595245   1.996883   2.608875   3.196125
    16  H    2.399422   2.278835   2.588561   3.586504   4.402643
                    6          7          8          9         10
     6  H    0.000000
     7  C    1.974035   0.000000
     8  H    2.646478   1.058445   0.000000
     9  H    2.338347   1.070000   1.816471   0.000000
    10  C    2.252697   1.461369   2.202672   2.146562   0.000000
    11  H    2.877399   2.205824   3.072369   2.465447   1.070000
    12  C    2.754340   2.507455   2.837791   3.434309   1.446445
    13  H    3.408950   3.475880   3.899368   4.306942   2.206074
    14  C    3.125889   2.802362   2.610702   3.868133   2.439330
    15  H    3.288127   2.481378   1.915226   3.521370   2.629772
    16  H    4.003124   3.871727   3.622620   4.936956   3.407340
                   11         12         13         14         15
    11  H    0.000000
    12  C    2.191554   0.000000
    13  H    2.564980   1.070000   0.000000
    14  C    3.412734   1.430450   2.195828   0.000000
    15  H    3.655481   2.152079   3.097462   1.063590   0.000000
    16  H    4.300219   2.149589   2.503764   1.070000   1.831810
                   16
    16  H    0.000000
 Stoichiometry    C6H10
 Framework group  C1[X(C6H10)]
 Deg. of freedom    42
 Full point group                 C1      NOp   1
 Largest Abelian subgroup         C1      NOp   1
 Largest concise Abelian subgroup C1      NOp   1
                         Standard orientation:                         
 ---------------------------------------------------------------------
 Center     Atomic      Atomic             Coordinates (Angstroms)
 Number     Number       Type             X           Y           Z
 ---------------------------------------------------------------------
      1          6           0        0.992632    1.128425   -0.204923
      2          1           0        1.530400    0.769970   -1.038765
      3          1           0        1.479683    1.708892    0.550551
      4          6           0       -0.430238    1.350925   -0.406024
      5          1           0       -0.822114    2.278710   -0.014686
      6          1           0       -0.880905    0.875960   -1.249610
      7          6           0       -1.411597    0.142796    0.504713
      8          1           0       -0.923888    0.506919    1.370658
      9          1           0       -2.453925    0.361853    0.402409
     10          6           0       -0.969337   -1.087336   -0.148569
     11          1           0       -1.684310   -1.789780   -0.523116
     12          6           0        0.447844   -1.338618   -0.292293
     13          1           0        0.824148   -2.063892   -0.983143
     14          6           0        1.313165   -0.511974    0.491331
     15          1           0        0.914264   -0.030608    1.351789
     16          1           0        2.361833   -0.723335    0.468500
 ---------------------------------------------------------------------
 Rotational constants (GHZ):           4.5167003           4.4466878           2.6657459
 Leave Link  202 at Wed Jun 24 14:07:12 2026, MaxMem=   104857600 cpu:               0.0 elap:               0.0
 (Enter E:/g16w/\l301.exe)
 Standard basis: STO-3G (5D, 7F)
 Ernie: Thresh=  0.10000D-02 Tol=  0.10000D-05 Strict=F.
 There are    40 symmetry adapted cartesian basis functions of A   symmetry.
 There are    40 symmetry adapted basis functions of A   symmetry.
    40 basis functions,   120 primitive gaussians,    40 cartesian basis functions
    23 alpha electrons       23 beta electrons
       nuclear repulsion energy       235.8007753489 Hartrees.
 IExCor=    0 DFT=F Ex=HF Corr=None ExCW=0 ScaHFX=  1.000000
 ScaDFX=  1.000000  1.000000  1.000000  1.000000 ScalE2=  1.000000  1.000000
 IRadAn=      5 IRanWt=     -1 IRanGd=            0 ICorTp=0 IEmpDi=  4
 NAtoms=   16 NActive=   16 NUniq=   16 SFac= 1.00D+00 NAtFMM=   60 NAOKFM=F Big=F
 Integral buffers will be    131072 words long.
 Raffenetti 1 integral format.
 Two-electron integral symmetry is turned on.
 Leave Link  301 at Wed Jun 24 14:07:12 2026, MaxMem=   104857600 cpu:               0.0 elap:               0.0
 (Enter E:/g16w/\l402.exe)
 External calculation of energy and first derivatives.
 Running external command "D:\xbt-windows\gau_xtb_client.bat R"
         input file       "D:\xbt-windows\xtbridge\example\TS\Gau-8728.EIn"
         output file      "D:\xbt-windows\xtbridge\example\TS\Gau-8728.EOu"
         message file     "D:\xbt-windows\xtbridge\example\TS\Gau-8728.EMs"
         fchk file        "D:\xbt-windows\xtbridge\example\TS\Gau-8728.EFC"
         mat. el file     "D:\xbt-windows\xtbridge\example\TS\Gau-8728.EUF"
 Recovered energy= -234.475851097     dipole=      0.000000000000      0.000000000000      0.000000000000
 Energy=    -234.475851     NIter=   0.
 Dipole moment=       0.000000       0.000000       0.000000
 Leave Link  402 at Wed Jun 24 14:07:12 2026, MaxMem=   104857600 cpu:               0.0 elap:               0.2
 (Enter E:/g16w/\l601.exe)
 Leave Link  601 at Wed Jun 24 14:07:12 2026, MaxMem=   104857600 cpu:               0.0 elap:               0.0
 (Enter E:/g16w/\l716.exe)
 Dipole        = 0.00000000D+00 0.00000000D+00 0.00000000D+00
 ***** Axes restored to original set *****
 -------------------------------------------------------------------
 Center     Atomic                   Forces (Hartrees/Bohr)
 Number     Number              X              Y              Z
 -------------------------------------------------------------------
      1        6           0.019588667   -0.035393680   -0.027044921
      2        1          -0.010494076    0.004301270    0.040909971
      3        1          -0.010260654    0.003799548    0.016506174
      4        6           0.027179508    0.009051007   -0.045236017
      5        1           0.004086071    0.001648816    0.012161522
      6        1          -0.004538936    0.006212460    0.045564193
      7        6          -0.013928923   -0.031997654    0.038339752
      8        1          -0.009412820    0.001663411   -0.037940848
      9        1           0.000072747    0.009184469   -0.003649583
     10        6          -0.039664641   -0.067764945    0.008163427
     11        1           0.008132547    0.002467476    0.007402815
     12        6           0.028765588    0.078905707   -0.047458809
     13        1           0.004033749   -0.006930647   -0.005740199
     14        6           0.006164230    0.041405300    0.038067001
     15        1          -0.002405064   -0.012535174   -0.042234909
     16        1          -0.007317994   -0.004017363    0.002190431
 -------------------------------------------------------------------
 Cartesian Forces:  Max     0.078905707 RMS     0.027015844
 Leave Link  716 at Wed Jun 24 14:07:12 2026, MaxMem=   104857600 cpu:               0.0 elap:               0.0
 (Enter E:/g16w/\l103.exe)

 GradGradGradGradGradGradGradGradGradGradGradGradGradGradGradGradGradGrad
 Berny optimization.
 FormGI is forming the generalized inverse of G from B-inverse, IUseBI=4.
 Internal  Forces:  Max     0.078401768 RMS     0.008725830
 Search for a saddle point.
 Step number   1 out of a maximum of  100
 All quantities printed in internal units (Hartrees-Bohrs-Radians)
 Second derivative matrix not updated -- first step.
 ITU=  0
 LST/QST climbing along tangent vector
     Eigenvalues ---    0.01263   0.01540   0.01617   0.01829   0.02101
     Eigenvalues ---    0.03121   0.03774   0.04387   0.04523   0.04927
     Eigenvalues ---    0.05206   0.05445   0.05660   0.05756   0.06218
     Eigenvalues ---    0.06654   0.06713   0.07063   0.07301   0.07819
     Eigenvalues ---    0.08530   0.09216   0.09936   0.11032   0.12808
     Eigenvalues ---    0.15964   0.15999   0.17355   0.29522   0.29616
     Eigenvalues ---    0.30556   0.31059   0.32199   0.34464   0.34923
     Eigenvalues ---    0.37230   0.37230   0.37230   0.37230   0.37230
     Eigenvalues ---    0.38160   0.391361000.000001000.000001000.00000
     Eigenvalues --- 1000.000001000.000001000.000001000.000001000.00000
     Eigenvalues --- 1000.000001000.000001000.000001000.000001000.00000
     Eigenvalues --- 1000.000001000.000001000.000001000.000001000.00000
     Eigenvalues --- 1000.000001000.000001000.000001000.000001000.00000
     Eigenvalues --- 1000.000001000.000001000.000001000.000001000.00000
     Eigenvalues --- 1000.000001000.000001000.000001000.000001000.00000
     Eigenvalues --- 1000.000001000.000001000.000001000.000001000.00000
     Eigenvalues --- 1000.000001000.000001000.000001000.000001000.00000
     Eigenvalues --- 1000.000001000.000001000.000001000.000001000.00000
     Eigenvalues --- 1000.000001000.000001000.000001000.000001000.00000
     Eigenvalues --- 1000.000001000.000001000.000001000.000001000.00000
     Eigenvalues --- 1000.000001000.000001000.000001000.000001000.00000
     Eigenvalues --- 1000.000001000.000001000.000001000.000001000.00000
     Eigenvalues --- 1000.000001000.000001000.000001000.000001000.00000
     Eigenvalues --- 1000.000001000.000001000.000001000.000001000.00000
     Eigenvalues --- 1000.000001000.000001000.000001000.000001000.00000
     Eigenvalues --- 1000.000001000.000001000.000001000.000001000.00000
     Eigenvalues --- 1000.000001000.000001000.000001000.000001000.00000
     Eigenvalues --- 1000.000001000.000001000.000001000.000001000.00000
     Eigenvalues --- 1000.000001000.000001000.000001000.000001000.00000
 Eigenvectors required to have negative eigenvalues:
                          D60       D56       D66       D62       D58
   1                    0.34723   0.32895  -0.31891   0.31181   0.30708
                          D67       D27       D31       D28       D22
   1                   -0.29399  -0.12109  -0.11554  -0.11137  -0.11036
 Eigenvalue     1 is   1.26D-02 should be less than     0.000000 Eigenvector:
                          D60       D56       D66       D62       D58
   1                    0.34723   0.32895  -0.31891   0.31181   0.30708
                          D67       D27       D31       D28       D22
   1                   -0.29399  -0.12109  -0.11554  -0.11137  -0.11036
 QST in optimization variable space.
 Eigenvectors 1 and  16 swapped, overlap=  1.0000
                        Tangent   TS vect  // Eig F  Eigenval
   1         R1        -0.00182  -0.00182   0.04574   0.06654
   2         R2         0.00000   0.00000   0.00246   0.01540
   3         R3         0.06177   0.06177   0.00206   0.01617
   4         R4        -0.17052  -0.17052   0.00127   0.01829
   5         R5         0.09224   0.09224  -0.01145   0.02101
   6         R6         0.12180   0.12180  -0.00602   0.03121
   7         R7        -0.00069  -0.00069  -0.00806   0.03774
   8         R8        -0.00146  -0.00146   0.00046   0.04387
   9         R9        -0.15714  -0.15714   0.00051   0.04523
  10         R10        0.11881   0.11881  -0.00189   0.04927
  11         R11        0.22719   0.22719  -0.00867   0.05206
  12         R12        0.06848   0.06848  -0.00592   0.05445
  13         R13        0.00134   0.00134   0.00388   0.05660
  14         R14        0.00000   0.00000   0.00147   0.05756
  15         R15        0.06865   0.06865   0.00177   0.06218
  16         R16        0.00000   0.00000   0.00097   0.01263
  17         R17       -0.05857  -0.05857   0.00070   0.06713
  18         R18        0.00000   0.00000   0.00328   0.07063
  19         R19        0.04809   0.04809   0.00190   0.07301
  20         R20       -0.00192  -0.00192  -0.00383   0.07819
  21         R21        0.00000   0.00000  -0.00036   0.08530
  22         A1        -0.02313  -0.02313   0.00417   0.09216
  23         A2        -0.03381  -0.03381  -0.00020   0.09936
  24         A3         0.14971   0.14971  -0.00166   0.11032
  25         A4         0.14235   0.14235   0.00365   0.12808
  26         A5        -0.01976  -0.01976  -0.00073   0.15964
  27         A6         0.03410   0.03410   0.00033   0.15999
  28         A7         0.02008   0.02008   0.00416   0.17355
  29         A8        -0.01979  -0.01979   0.01387   0.29522
  30         A9        -0.00693  -0.00693  -0.00595   0.29616
  31         A10       -0.13813  -0.13813   0.01131   0.30556
  32         A11       -0.03208  -0.03208  -0.01937   0.31059
  33         A12       -0.02742  -0.02742   0.00362   0.32199
  34         A13        0.00154   0.00154  -0.00395   0.34464
  35         A14       -0.00326  -0.00326  -0.00245   0.34923
  36         A15       -0.02202  -0.02202   0.00297   0.37230
  37         A16        0.05605   0.05605   0.00316   0.37230
  38         A17        0.11034   0.11034   0.00357   0.37230
  39         A18        0.09668   0.09668   0.00414   0.37230
  40         A19       -0.10731  -0.10731   0.00415   0.37230
  41         A20        0.14221   0.14221  -0.02966   0.38160
  42         A21       -0.00401  -0.00401   0.00806   0.39136
  43         A22        0.02186   0.02186   0.000001000.00000
  44         A23        0.13791   0.13791   0.000001000.00000
  45         A24       -0.00314  -0.00314   0.000001000.00000
  46         A25        0.01226   0.01226   0.000001000.00000
  47         A26       -0.03032  -0.03032   0.000001000.00000
  48         A27       -0.02086  -0.02086   0.000001000.00000
  49         A28       -0.02931  -0.02931   0.000001000.00000
  50         A29       -0.12962  -0.12962   0.000001000.00000
  51         A30       -0.13097  -0.13097   0.000001000.00000
  52         A31        0.00592   0.00592   0.000001000.00000
  53         A32       -0.01331  -0.01331   0.000001000.00000
  54         A33        0.00735   0.00735   0.000001000.00000
  55         A34        0.01424   0.01424   0.000001000.00000
  56         A35       -0.02868  -0.02868   0.000001000.00000
  57         A36        0.01440   0.01440   0.000001000.00000
  58         A37        0.04237   0.04237   0.000001000.00000
  59         A38        0.12800   0.12800   0.000001000.00000
  60         A39       -0.00641  -0.00641   0.000001000.00000
  61         A40        0.07004   0.07004   0.000001000.00000
  62         A41        0.11263   0.11263   0.000001000.00000
  63         A42       -0.02111  -0.02111   0.000001000.00000
  64         A43       -0.03656  -0.03656   0.000001000.00000
  65         A44       -0.01699  -0.01699   0.000001000.00000
  66         A45       -0.02082  -0.02082   0.000001000.00000
  67         A46       -0.12503  -0.12503   0.000001000.00000
  68         D1         0.12823   0.12823   0.000001000.00000
  69         D2        -0.04836  -0.04836   0.000001000.00000
  70         D3         0.02946   0.02946   0.000001000.00000
  71         D4         0.28133   0.28133   0.000001000.00000
  72         D5         0.10753   0.10753   0.000001000.00000
  73         D6         0.22893   0.22893   0.000001000.00000
  74         D7         0.20960   0.20960   0.000001000.00000
  75         D8         0.10996   0.10996   0.000001000.00000
  76         D9        -0.06384  -0.06384   0.000001000.00000
  77         D10        0.05756   0.05756   0.000001000.00000
  78         D11        0.03823   0.03823   0.000001000.00000
  79         D12        0.12737   0.12737   0.000001000.00000
  80         D13       -0.04643  -0.04643   0.000001000.00000
  81         D14        0.07496   0.07496   0.000001000.00000
  82         D15        0.12764   0.12764   0.000001000.00000
  83         D16       -0.04616  -0.04616   0.000001000.00000
  84         D17        0.05591   0.05591   0.000001000.00000
  85         D18       -0.05966  -0.05966   0.000001000.00000
  86         D19       -0.03801  -0.03801   0.000001000.00000
  87         D20       -0.05759  -0.05759   0.000001000.00000
  88         D21       -0.05151  -0.05151   0.000001000.00000
  89         D22       -0.02985  -0.02985   0.000001000.00000
  90         D23       -0.04943  -0.04943   0.000001000.00000
  91         D24       -0.03939  -0.03939   0.000001000.00000
  92         D25       -0.01774  -0.01774   0.000001000.00000
  93         D26       -0.03732  -0.03732   0.000001000.00000
  94         D27       -0.05841  -0.05841   0.000001000.00000
  95         D28       -0.04290  -0.04290   0.000001000.00000
  96         D29       -0.02521  -0.02521   0.000001000.00000
  97         D30       -0.02976  -0.02976   0.000001000.00000
  98         D31       -0.05194  -0.05194   0.000001000.00000
  99         D32       -0.04627  -0.04627   0.000001000.00000
 100         D33        0.05508   0.05508   0.000001000.00000
 101         D34       -0.13115  -0.13115   0.000001000.00000
 102         D35        0.01167   0.01167   0.000001000.00000
 103         D36       -0.02956  -0.02956   0.000001000.00000
 104         D37       -0.00867  -0.00867   0.000001000.00000
 105         D38       -0.03231  -0.03231   0.000001000.00000
 106         D39       -0.02583  -0.02583   0.000001000.00000
 107         D40       -0.00494  -0.00494   0.000001000.00000
 108         D41       -0.02858  -0.02858   0.000001000.00000
 109         D42       -0.01848  -0.01848   0.000001000.00000
 110         D43        0.00241   0.00241   0.000001000.00000
 111         D44       -0.02123  -0.02123   0.000001000.00000
 112         D45       -0.02489  -0.02489   0.000001000.00000
 113         D46       -0.02588  -0.02588   0.000001000.00000
 114         D47       -0.03000  -0.03000   0.000001000.00000
 115         D48       -0.00031  -0.00031   0.000001000.00000
 116         D49       -0.02919  -0.02919   0.000001000.00000
 117         D50        0.01523   0.01523   0.000001000.00000
 118         D51        0.00332   0.00332   0.000001000.00000
 119         D52       -0.06616  -0.06616   0.000001000.00000
 120         D53       -0.07807  -0.07807   0.000001000.00000
 121         D54        0.11009   0.11009   0.000001000.00000
 122         D55        0.09818   0.09818   0.000001000.00000
 123         D56       -0.06611  -0.06611   0.000001000.00000
 124         D57       -0.07129  -0.07129   0.000001000.00000
 125         D58       -0.07704  -0.07704   0.000001000.00000
 126         D59       -0.08223  -0.08223   0.000001000.00000
 127         D60       -0.24359  -0.24359   0.000001000.00000
 128         D61       -0.24878  -0.24878   0.000001000.00000
 129         D62       -0.07039  -0.07039   0.000001000.00000
 130         D63       -0.07557  -0.07557   0.000001000.00000
 131         D64        0.08167   0.08167   0.000001000.00000
 132         D65        0.08120   0.08120   0.000001000.00000
 133         D66        0.07648   0.07648   0.000001000.00000
 134         D67        0.07601   0.07601   0.000001000.00000
 135         D68       -0.03590  -0.03590   0.000001000.00000
 136         D69       -0.03691  -0.03691   0.000001000.00000
 137         D70        0.12766   0.12766   0.000001000.00000
 138         D71       -0.04964  -0.04964   0.000001000.00000
 139         D72       -0.03639  -0.03639   0.000001000.00000
 140         D73       -0.03739  -0.03739   0.000001000.00000
 141         D74        0.12717   0.12717   0.000001000.00000
 142         D75       -0.05012  -0.05012   0.000001000.00000
 143         D76        0.02355   0.02355   0.000001000.00000
 144         D77       -0.11885  -0.11885   0.000001000.00000
 145         D78        0.05830   0.05830   0.000001000.00000
 RFO step:  Lambda0=8.983478943D-02 Lambda=-1.39068397D-02.
 Linear search not attempted -- option 19 set.
 Maximum step size (   0.300) exceeded in Quadratic search.
    -- Step size scaled by   0.266
 Iteration  1 RMS(Cart)=  0.03002411 RMS(Int)=  0.00120091
 Iteration  2 RMS(Cart)=  0.00096290 RMS(Int)=  0.00054584
 Iteration  3 RMS(Cart)=  0.00000042 RMS(Int)=  0.00054584
 ITry= 1 IFail=0 DXMaxC= 1.73D-01 DCOld= 1.00D+10 DXMaxT= 3.00D-01 DXLimC= 3.00D+00 Rises=F
 Variable       Old X    -DE/DX   Delta X   Delta X   Delta X     New X
                                 (Linear)    (Quad)   (Total)
    R1        1.99362   0.00480   0.00000   0.00339   0.00417   1.99779
    R2        2.02201   0.00827   0.00000   0.00285   0.00285   2.02486
    R3        2.74792  -0.00056   0.00000  -0.03165  -0.03174   2.71617
    R4        3.42161  -0.01055   0.00000   0.08860   0.08844   3.51005
    R5        3.67057   0.01137   0.00000  -0.03082  -0.03073   3.63984
    R6        3.79443   0.01377   0.00000  -0.04734  -0.04784   3.74659
    R7        2.04186  -0.00284   0.00000  -0.00021  -0.00051   2.04136
    R8        2.01797  -0.00140   0.00000  -0.00007  -0.00005   2.01792
    R9        3.40784  -0.01030   0.00000   0.07961   0.07955   3.48740
   R10        3.83230   0.00642   0.00000  -0.05387  -0.05445   3.77785
   R11        4.25452   0.00676   0.00000  -0.11406  -0.11416   4.14036
   R12        3.73039   0.01010   0.00000  -0.01822  -0.01778   3.71260
   R13        2.00017   0.00844   0.00000   0.00218   0.00279   2.00296
   R14        2.02201   0.00831   0.00000   0.00286   0.00286   2.02487
   R15        2.76159  -0.00351   0.00000  -0.03944  -0.03973   2.72186
   R16        2.02201   0.00594   0.00000   0.00205   0.00205   2.02405
   R17        2.73338  -0.07840   0.00000   0.00347   0.00352   2.73690
   R18        2.02201   0.00633   0.00000   0.00218   0.00218   2.02419
   R19        2.70316   0.00533   0.00000  -0.02340  -0.02306   2.68010
   R20        2.00989   0.00151   0.00000   0.00171   0.00222   2.01212
   R21        2.02201   0.00714   0.00000   0.00246   0.00246   2.02447
    A1        2.10639  -0.00365   0.00000   0.00619   0.00425   2.11064
    A2        2.02803  -0.00361   0.00000   0.01837   0.01738   2.04540
    A3        1.47652   0.01154   0.00000  -0.06948  -0.06864   1.40788
    A4        2.03899   0.01111   0.00000  -0.06731  -0.06747   1.97152
    A5        2.04883   0.00415   0.00000   0.01070   0.01041   2.05925
    A6        1.71066   0.00271   0.00000  -0.01410  -0.01405   1.69661
    A7        1.34510   0.00366   0.00000  -0.00330  -0.00278   1.34231
    A8        1.94446  -0.00856   0.00000   0.00725   0.00681   1.95127
    A9        1.73418  -0.00697   0.00000  -0.00078  -0.00087   1.73331
   A10        1.11462  -0.01146   0.00000   0.06481   0.06500   1.17962
   A11        2.02214   0.00296   0.00000   0.01819   0.01781   2.03995
   A12        2.04221  -0.00406   0.00000   0.01173   0.01083   2.05305
   A13        1.93921  -0.00556   0.00000  -0.00298  -0.00367   1.93554
   A14        1.62417  -0.00548   0.00000   0.00196   0.00225   1.62642
   A15        2.11177  -0.00278   0.00000   0.00782   0.00570   2.11746
   A16        1.76702   0.00211   0.00000  -0.02869  -0.02841   1.73862
   A17        1.44176   0.01060   0.00000  -0.04670  -0.04597   1.39580
   A18        1.98696   0.01243   0.00000  -0.03947  -0.03984   1.94712
   A19        1.13360  -0.00931   0.00000   0.04747   0.04742   1.18102
   A20        1.50270   0.00638   0.00000  -0.06922  -0.06845   1.43425
   A21        1.92269  -0.00299   0.00000  -0.00050  -0.00049   1.92220
   A22        1.74516   0.00436   0.00000  -0.00548  -0.00596   1.73920
   A23        2.06625   0.00513   0.00000  -0.06897  -0.06898   1.99727
   A24        1.67185  -0.00175   0.00000  -0.00051  -0.00030   1.67154
   A25        1.40402   0.00558   0.00000   0.00362   0.00368   1.40770
   A26        2.04503  -0.00303   0.00000   0.01066   0.00918   2.05421
   A27        2.11281  -0.00249   0.00000   0.00848   0.00670   2.11951
   A28        2.00909   0.00129   0.00000   0.01819   0.01826   2.02735
   A29        1.09120  -0.00820   0.00000   0.06287   0.06313   1.15433
   A30        1.35732  -0.00813   0.00000   0.06507   0.06539   1.42272
   A31        2.10235  -0.00254   0.00000  -0.00322  -0.00258   2.09977
   A32        2.07964   0.00398   0.00000   0.00632   0.00506   2.08470
   A33        2.10116  -0.00144   0.00000  -0.00315  -0.00253   2.09864
   A34        2.12525  -0.00385   0.00000  -0.01092  -0.01069   2.11456
   A35        2.02402   0.00629   0.00000   0.02030   0.01981   2.04383
   A36        2.13254  -0.00247   0.00000  -0.00984  -0.00964   2.12290
   A37        1.77809   0.00602   0.00000  -0.01312  -0.01332   1.76477
   A38        1.40470   0.01064   0.00000  -0.05740  -0.05667   1.34803
   A39        1.92224  -0.00455   0.00000   0.00000  -0.00026   1.92198
   A40        1.58774   0.00883   0.00000  -0.02688  -0.02701   1.56073
   A41        1.94778   0.01050   0.00000  -0.05065  -0.05108   1.89670
   A42        1.57462  -0.00442   0.00000   0.01038   0.01110   1.58572
   A43        2.06901  -0.00806   0.00000   0.01437   0.01268   2.08169
   A44        2.05672   0.00438   0.00000   0.01132   0.01108   2.06780
   A45        2.06489  -0.00262   0.00000   0.00567   0.00493   2.06983
   A46        1.16641  -0.01028   0.00000   0.05764   0.05773   1.22414
    D1        1.67771   0.01004   0.00000  -0.05736  -0.05714   1.62057
    D2       -1.94132   0.00422   0.00000   0.02436   0.02504  -1.91629
    D3        0.09842   0.00061   0.00000  -0.01610  -0.01573   0.08269
    D4       -2.35513   0.00567   0.00000  -0.15101  -0.15127  -2.50641
    D5        0.31174  -0.00308   0.00000  -0.07121  -0.07105   0.24069
    D6        1.92451   0.00499   0.00000  -0.12377  -0.12351   1.80100
    D7        2.38504   0.00677   0.00000  -0.11231  -0.11283   2.27221
    D8        0.32523  -0.00206   0.00000  -0.07344  -0.07339   0.25184
    D9        2.99209  -0.01082   0.00000   0.00636   0.00683   2.99893
   D10       -1.67832  -0.00274   0.00000  -0.04619  -0.04562  -1.72394
   D11       -1.21779  -0.00096   0.00000  -0.03474  -0.03494  -1.25273
   D12        2.27695  -0.00207   0.00000  -0.07970  -0.08007   2.19688
   D13       -1.33936  -0.01082   0.00000   0.00010   0.00015  -1.33921
   D14        0.27341  -0.00274   0.00000  -0.05246  -0.05230   0.22110
   D15        1.72517  -0.00108   0.00000  -0.07672  -0.07620   1.64897
   D16       -1.89115  -0.00983   0.00000   0.00308   0.00403  -1.88712
   D17        0.18215   0.00002   0.00000  -0.03802  -0.03775   0.14440
   D18       -1.25604  -0.00734   0.00000   0.02833   0.02896  -1.22709
   D19        2.97850  -0.00019   0.00000   0.02116   0.02156   3.00006
   D20        0.94016  -0.00089   0.00000   0.03384   0.03394   0.97410
   D21        2.92769  -0.00482   0.00000   0.02918   0.02909   2.95678
   D22        0.87905   0.00233   0.00000   0.02201   0.02169   0.90074
   D23       -1.15929   0.00163   0.00000   0.03469   0.03407  -1.12521
   D24        0.76949  -0.00747   0.00000   0.02164   0.02209   0.79158
   D25       -1.27915  -0.00032   0.00000   0.01447   0.01470  -1.26446
   D26        2.96570  -0.00102   0.00000   0.02715   0.02708   2.99277
   D27       -0.18215  -0.00145   0.00000   0.03117   0.03040  -0.15175
   D28       -2.24299   0.00089   0.00000   0.02636   0.02593  -2.21706
   D29        2.01322  -0.00486   0.00000   0.01545   0.01526   2.02847
   D30        1.94541  -0.00324   0.00000   0.01760   0.01803   1.96344
   D31       -0.17309  -0.00124   0.00000   0.02767   0.02736  -0.14573
   D32       -2.28090   0.00117   0.00000   0.02878   0.02888  -2.25203
   D33        1.91928  -0.00119   0.00000  -0.02593  -0.02664   1.89264
   D34       -1.72278  -0.00880   0.00000   0.06125   0.06089  -1.66189
   D35        0.05346   0.00004   0.00000  -0.00934  -0.00950   0.04396
   D36        1.02031   0.00145   0.00000   0.02046   0.02077   1.04107
   D37        3.07198   0.00027   0.00000   0.00562   0.00591   3.07789
   D38       -1.08918   0.00281   0.00000   0.02337   0.02347  -1.06571
   D39       -1.13697  -0.00055   0.00000   0.01755   0.01823  -1.11875
   D40        0.91470  -0.00172   0.00000   0.00271   0.00337   0.91806
   D41        3.03673   0.00082   0.00000   0.02046   0.02093   3.05766
   D42        3.04760   0.00072   0.00000   0.01580   0.01611   3.06371
   D43       -1.18392  -0.00045   0.00000   0.00096   0.00126  -1.18266
   D44        0.93811   0.00209   0.00000   0.01871   0.01882   0.95693
   D45       -2.22058   0.00361   0.00000   0.01818   0.01877  -2.20181
   D46       -0.10194   0.00008   0.00000   0.01955   0.01947  -0.08247
   D47       -0.10664   0.00048   0.00000   0.02244   0.02188  -0.08476
   D48        2.07863  -0.00198   0.00000   0.00046   0.00065   2.07928
   D49       -2.20526  -0.00024   0.00000   0.01912   0.01934  -2.18592
   D50        0.05726  -0.00040   0.00000  -0.01181  -0.01151   0.04576
   D51        0.50956  -0.00107   0.00000  -0.00687  -0.00584   0.50372
   D52       -1.93192   0.00041   0.00000   0.03548   0.03509  -1.89683
   D53       -1.47962  -0.00026   0.00000   0.04042   0.04075  -1.43886
   D54        1.73341   0.00884   0.00000  -0.04761  -0.04808   1.68534
   D55        2.18571   0.00817   0.00000  -0.04267  -0.04241   2.14330
   D56       -2.25825   0.00466   0.00000   0.05798   0.05807  -2.20018
   D57        0.87472   0.00408   0.00000   0.05274   0.05281   0.92753
   D58       -1.80409   0.00396   0.00000   0.06379   0.06329  -1.74080
   D59        1.32888   0.00338   0.00000   0.05855   0.05803   1.38691
   D60        2.42872  -0.00505   0.00000   0.14156   0.14142   2.57014
   D61       -0.72150  -0.00564   0.00000   0.13633   0.13616  -0.58534
   D62       -0.19921   0.00440   0.00000   0.06212   0.06195  -0.13726
   D63        2.93376   0.00382   0.00000   0.05688   0.05669   2.99045
   D64       -2.84084  -0.00342   0.00000  -0.05885  -0.05903  -2.89987
   D65        0.24559  -0.00409   0.00000  -0.06848  -0.06897   0.17661
   D66        0.29213  -0.00401   0.00000  -0.06408  -0.06429   0.22784
   D67       -2.90462  -0.00468   0.00000  -0.07371  -0.07423  -2.97886
   D68       -1.12071  -0.00075   0.00000   0.03418   0.03392  -1.08679
   D69       -1.64137  -0.00213   0.00000   0.03537   0.03626  -1.60510
   D70        0.37208   0.01333   0.00000  -0.03640  -0.03661   0.33547
   D71        3.05775  -0.00189   0.00000   0.03756   0.03802   3.09576
   D72        1.96546  -0.00147   0.00000   0.02448   0.02390   1.98937
   D73        1.44481  -0.00285   0.00000   0.02566   0.02624   1.47105
   D74       -2.82493   0.01260   0.00000  -0.04610  -0.04664  -2.87156
   D75       -0.13926  -0.00262   0.00000   0.02785   0.02799  -0.11127
   D76        0.09147   0.00048   0.00000  -0.01294  -0.01305   0.07843
   D77       -1.71769  -0.01318   0.00000   0.04640   0.04713  -1.67057
   D78        1.88197   0.00029   0.00000  -0.02940  -0.02921   1.85276
         Item               Value     Threshold  Converged?
 Maximum Force            0.078402     0.000450     NO 
 RMS     Force            0.008726     0.000300     NO 
 Maximum Displacement     0.173314     0.001800     NO 
 RMS     Displacement     0.029848     0.001200     NO 
 Predicted change in Energy= 2.426950D-02
 GradGradGradGradGradGradGradGradGradGradGradGradGradGradGradGradGradGrad

 Leave Link  103 at Wed Jun 24 14:07:12 2026, MaxMem=   104857600 cpu:               0.0 elap:               0.0
 (Enter E:/g16w/\l202.exe)
                          Input orientation:                          
 ---------------------------------------------------------------------
 Center     Atomic      Atomic             Coordinates (Angstroms)
 Number     Number       Type             X           Y           Z
 ---------------------------------------------------------------------
      1          6           0       -0.192147    1.283810   -1.164421
      2          1           0        0.243165    0.492616   -0.614738
      3          1           0       -1.254761    1.351839   -1.284229
      4          6           0        0.581274    2.486684   -1.308835
      5          1           0        0.039270    3.420938   -1.290944
      6          1           0        1.618355    2.441697   -1.058400
      7          6           0        1.323893    2.593376   -2.994902
      8          1           0        0.305761    2.559076   -3.287587
      9          1           0        1.844313    3.522854   -3.110567
     10          6           0        2.140166    1.406832   -2.974693
     11          1           0        3.186293    1.466593   -3.196652
     12          6           0        1.538134    0.134220   -2.634685
     13          1           0        2.141437   -0.718208   -2.396437
     14          6           0        0.122956    0.090346   -2.552384
     15          1           0       -0.449903    0.853876   -3.024168
     16          1           0       -0.347719   -0.849294   -2.344466
 ---------------------------------------------------------------------
                    Distance matrix (angstroms):
                    1          2          3          4          5
     1  C    0.000000
     2  H    1.057183   0.000000
     3  H    1.071509   1.852097   0.000000
     4  C    1.437338   2.138316   2.158588   0.000000
     5  H    2.153341   3.012291   2.440436   1.080240   0.000000
     6  H    2.151711   2.426294   3.081166   1.067838   1.872564
     7  C    2.713669   3.353558   3.334257   1.845451   2.288796
     8  H    2.526272   3.379097   2.811777   1.999151   2.190982
     9  H    3.598329   4.239715   4.201556   2.432109   2.565072
    10  C    2.954979   3.162877   3.792917   2.524145   3.362350
    11  H    3.946799   4.034466   4.836682   3.374991   4.165926
    12  C    2.545015   2.426022   3.332655   2.864881   3.854185
    13  H    3.312333   2.871234   4.129923   3.726703   4.772185
    14  C    1.857441   1.982610   2.257806   2.738413   3.562454
    15  H    1.926120   2.533023   1.980694   2.582974   3.135787
    16  H    2.442711   2.267559   2.606110   3.614458   4.415263
                    6          7          8          9         10
     6  H    0.000000
     7  C    1.964626   0.000000
     8  H    2.589586   1.059921   0.000000
     9  H    2.330525   1.071515   1.824102   0.000000
    10  C    2.239512   1.440347   2.188747   2.140921   0.000000
    11  H    2.825134   2.186064   3.082086   2.456935   1.071083
    12  C    2.795632   2.494615   2.797312   3.435557   1.448305
    13  H    3.471161   3.463110   3.860628   4.311018   2.202311
    14  C    3.161813   2.811269   2.582358   3.880303   2.445530
    15  H    3.265442   2.484566   1.883647   3.520559   2.648899
    16  H    4.043517   3.881924   3.596318   4.950514   3.417142
                   11         12         13         14         15
    11  H    0.000000
    12  C    2.192590   0.000000
    13  H    2.550573   1.071154   0.000000
    14  C    3.419528   1.418248   2.179987   0.000000
    15  H    3.691489   2.149859   3.095245   1.064767   0.000000
    16  H    4.310312   2.146618   2.493147   1.071301   1.836634
                   16
    16  H    0.000000
 Stoichiometry    C6H10
 Framework group  C1[X(C6H10)]
 Deg. of freedom    42
 Full point group                 C1      NOp   1
 RotChk:  IX=0 Diff= 1.25D-01
 Largest Abelian subgroup         C1      NOp   1
 Largest concise Abelian subgroup C1      NOp   1
                         Standard orientation:                         
 ---------------------------------------------------------------------
 Center     Atomic      Atomic             Coordinates (Angstroms)
 Number     Number       Type             X           Y           Z
 ---------------------------------------------------------------------
      1          6           0        0.875467    1.227290   -0.229084
      2          1           0        1.424848    0.837170   -1.043715
      3          1           0        1.347536    1.845248    0.508080
      4          6           0       -0.548622    1.337298   -0.389738
      5          1           0       -1.026438    2.193985    0.062699
      6          1           0       -0.995610    0.821862   -1.211203
      7          6           0       -1.419560   -0.014969    0.514988
      8          1           0       -0.927414    0.421128    1.346280
      9          1           0       -2.480536    0.114841    0.439998
     10          6           0       -0.869563   -1.156662   -0.169585
     11          1           0       -1.517793   -1.888193   -0.607624
     12          6           0        0.567837   -1.298630   -0.275944
     13          1           0        1.006547   -2.002022   -0.954283
     14          6           0        1.363390   -0.412459    0.494268
     15          1           0        0.926883    0.090590    1.325010
     16          1           0        2.428283   -0.525821    0.465323
 ---------------------------------------------------------------------
 Rotational constants (GHZ):           4.4732736           4.4387114           2.6445430
 Leave Link  202 at Wed Jun 24 14:07:12 2026, MaxMem=   104857600 cpu:               0.0 elap:               0.0
 (Enter E:/g16w/\l301.exe)
 Standard basis: STO-3G (5D, 7F)
 Ernie: Thresh=  0.10000D-02 Tol=  0.10000D-05 Strict=F.
 There are    40 symmetry adapted cartesian basis functions of A   symmetry.
 There are    40 symmetry adapted basis functions of A   symmetry.
    40 basis functions,   120 primitive gaussians,    40 cartesian basis functions
    23 alpha electrons       23 beta electrons
       nuclear repulsion energy       235.5276148734 Hartrees.
 IExCor=    0 DFT=F Ex=HF Corr=None ExCW=0 ScaHFX=  1.000000
 ScaDFX=  1.000000  1.000000  1.000000  1.000000 ScalE2=  1.000000  1.000000
 IRadAn=      5 IRanWt=     -1 IRanGd=            0 ICorTp=0 IEmpDi=  4
 NAtoms=   16 NActive=   16 NUniq=   16 SFac= 1.00D+00 NAtFMM=   60 NAOKFM=F Big=F
 Integral buffers will be    131072 words long.
 Raffenetti 1 integral format.
 Two-electron integral symmetry is turned on.
 Leave Link  301 at Wed Jun 24 14:07:12 2026, MaxMem=   104857600 cpu:               0.0 elap:               0.0
 (Enter E:/g16w/\l402.exe)
 External calculation of energy and first derivatives.
 Running external command "D:\xbt-windows\gau_xtb_client.bat R"
         input file       "D:\xbt-windows\xtbridge\example\TS\Gau-4868.EIn"
         output file      "D:\xbt-windows\xtbridge\example\TS\Gau-4868.EOu"
         message file     "D:\xbt-windows\xtbridge\example\TS\Gau-4868.EMs"
         fchk file        "D:\xbt-windows\xtbridge\example\TS\Gau-4868.EFC"
         mat. el file     "D:\xbt-windows\xtbridge\example\TS\Gau-4868.EUF"
 Recovered energy= -234.459914894     dipole=      0.000000000000      0.000000000000      0.000000000000
 Energy=    -234.459915     NIter=   0.
 Dipole moment=       0.000000       0.000000       0.000000
 Leave Link  402 at Wed Jun 24 14:07:12 2026, MaxMem=   104857600 cpu:               0.0 elap:               0.2
 (Enter E:/g16w/\l716.exe)
 Dipole        = 0.00000000D+00 0.00000000D+00 0.00000000D+00
 ***** Axes restored to original set *****
 -------------------------------------------------------------------
 Center     Atomic                   Forces (Hartrees/Bohr)
 Number     Number              X              Y              Z
 -------------------------------------------------------------------
      1        6           0.015866590   -0.026365853   -0.016417415
      2        1          -0.010574861    0.005411725    0.040616377
      3        1          -0.008060096    0.002485346    0.016248090
      4        6           0.023464844    0.005189003   -0.032392820
      5        1           0.004000589    0.001634091    0.011678913
      6        1          -0.005906586    0.008310197    0.045861353
      7        6          -0.010003007   -0.027456271    0.028112678
      8        1          -0.007608571    0.000917760   -0.038174614
      9        1          -0.000940500    0.007726582   -0.002790006
     10        6          -0.038328499   -0.064787607    0.000768863
     11        1           0.006699340    0.001545862    0.006184151
     12        6           0.027835924    0.072295467   -0.041990864
     13        1           0.003910866   -0.005763008   -0.004157879
     14        6           0.009532755    0.033655734    0.025342068
     15        1          -0.003298762   -0.012089733   -0.041508190
     16        1          -0.006590023   -0.002709296    0.002619296
 -------------------------------------------------------------------
 Cartesian Forces:  Max     0.072295467 RMS     0.024129270
 Leave Link  716 at Wed Jun 24 14:07:12 2026, MaxMem=   104857600 cpu:               0.0 elap:               0.0
 (Enter E:/g16w/\l103.exe)

 GradGradGradGradGradGradGradGradGradGradGradGradGradGradGradGradGradGrad
 Berny optimization.
 FormGI is forming the generalized inverse of G from B-inverse, IUseBI=4.
 Internal  Forces:  Max     0.073289124 RMS     0.008175115
 Search for a saddle point.
 Step number   2 out of a maximum of  100
 All quantities printed in internal units (Hartrees-Bohrs-Radians)
 Update second derivatives using D2CorX and points    1    2
 ITU=  0  0
 LST/QST climbing along tangent vector
     Eigenvalues ---   -0.00440   0.01260   0.01577   0.01621   0.01818
     Eigenvalues ---    0.02282   0.03074   0.03729   0.04363   0.04423
     Eigenvalues ---    0.04935   0.05235   0.05474   0.05725   0.05818
     Eigenvalues ---    0.06288   0.06762   0.07118   0.07245   0.07753
     Eigenvalues ---    0.08176   0.09042   0.10050   0.10809   0.12419
     Eigenvalues ---    0.15951   0.15998   0.17336   0.29656   0.30022
     Eigenvalues ---    0.30616   0.31204   0.32419   0.34610   0.35034
     Eigenvalues ---    0.37228   0.37230   0.37230   0.37230   0.37232
     Eigenvalues ---    0.38103   0.389031000.000001000.000001000.00000
     Eigenvalues --- 1000.000001000.000001000.000001000.000001000.00000
     Eigenvalues --- 1000.000001000.000001000.000001000.000001000.00000
     Eigenvalues --- 1000.000001000.000001000.000001000.000001000.00000
     Eigenvalues --- 1000.000001000.000001000.000001000.000001000.00000
     Eigenvalues --- 1000.000001000.000001000.000001000.000001000.00000
     Eigenvalues --- 1000.000001000.000001000.000001000.000001000.00000
     Eigenvalues --- 1000.000001000.000001000.000001000.000001000.00000
     Eigenvalues --- 1000.000001000.000001000.000001000.000001000.00000
     Eigenvalues --- 1000.000001000.000001000.000001000.000001000.00000
     Eigenvalues --- 1000.000001000.000001000.000001000.000001000.00000
     Eigenvalues --- 1000.000001000.000001000.000001000.000001000.00000
     Eigenvalues --- 1000.000001000.000001000.000001000.000001000.00000
     Eigenvalues --- 1000.000001000.000001000.000001000.000001000.00000
     Eigenvalues --- 1000.000001000.000001000.000001000.000001000.00000
     Eigenvalues --- 1000.000001000.000001000.000001000.000001000.00000
     Eigenvalues --- 1000.000001000.000001000.000001000.000001000.00000
     Eigenvalues --- 1000.000001000.000001000.000001000.000001000.00000
     Eigenvalues --- 1000.000001000.000001000.000001000.000001000.00000
     Eigenvalues --- 1000.000001000.000001000.000001000.000001000.00000
     Eigenvalues --- 1000.000001000.000001000.000001000.000001000.00000
 Eigenvectors required to have negative eigenvalues:
                          D4        D61       D60       R11       D6
   1                    0.27850  -0.24953  -0.24403   0.22889   0.22705
                          D7        R4        R9        A3        A4
   1                    0.21055  -0.16809  -0.15805   0.14694   0.14402
 QST in optimization variable space.
                        Tangent   TS vect  // Eig F  Eigenval
   1         R1        -0.00427  -0.00427   0.04329  -0.00440
   2         R2         0.00044   0.00044   0.00038   0.01260
   3         R3         0.06320   0.06320   0.00222   0.01577
   4         R4        -0.16809  -0.16809   0.00173   0.01621
   5         R5         0.09355   0.09355  -0.00042   0.01818
   6         R6         0.12681   0.12681   0.00780   0.02282
   7         R7         0.00135   0.00135  -0.00598   0.03074
   8         R8        -0.00150  -0.00150  -0.00845   0.03729
   9         R9        -0.15805  -0.15805   0.00254   0.04363
  10         R10        0.12706   0.12706   0.00075   0.04423
  11         R11        0.22889   0.22889   0.00264   0.04935
  12         R12        0.06788   0.06788  -0.00526   0.05235
  13         R13       -0.00075  -0.00075  -0.00438   0.05474
  14         R14        0.00044   0.00044   0.00954   0.05725
  15         R15        0.06903   0.06903   0.00459   0.05818
  16         R16        0.00031   0.00031   0.00318   0.06288
  17         R17       -0.06390  -0.06390   0.00124   0.06762
  18         R18        0.00033   0.00033  -0.00036   0.07118
  19         R19        0.04885   0.04885   0.00409   0.07245
  20         R20       -0.00275  -0.00275  -0.00196   0.07753
  21         R21        0.00038   0.00038   0.00351   0.08176
  22         A1        -0.01353  -0.01353   0.00369   0.09042
  23         A2        -0.03031  -0.03031   0.00044   0.10050
  24         A3         0.14694   0.14694  -0.00167   0.10809
  25         A4         0.14402   0.14402   0.00489   0.12419
  26         A5        -0.01792  -0.01792  -0.00074   0.15951
  27         A6         0.03141   0.03141   0.00001   0.15998
  28         A7         0.01542   0.01542   0.00270   0.17336
  29         A8        -0.01870  -0.01870   0.01652   0.29656
  30         A9        -0.00755  -0.00755  -0.00281   0.30022
  31         A10       -0.13962  -0.13962   0.00380   0.30616
  32         A11       -0.03002  -0.03002   0.01632   0.31204
  33         A12       -0.02433  -0.02433   0.00205   0.32419
  34         A13        0.00303   0.00303  -0.00457   0.34610
  35         A14       -0.00491  -0.00491  -0.00444   0.35034
  36         A15       -0.01155  -0.01155   0.00111   0.37228
  37         A16        0.05303   0.05303   0.00000   0.37230
  38         A17        0.10820   0.10820   0.00000   0.37230
  39         A18        0.09840   0.09840   0.00000   0.37230
  40         A19       -0.10826  -0.10826   0.00650   0.37232
  41         A20        0.14296   0.14296  -0.02598   0.38103
  42         A21       -0.00529  -0.00529   0.01368   0.38903
  43         A22        0.02434   0.02434   0.000001000.00000
  44         A23        0.14198   0.14198   0.000001000.00000
  45         A24       -0.00520  -0.00520   0.000001000.00000
  46         A25        0.01244   0.01244   0.000001000.00000
[...]
                           ----------------------------
                           !   Optimized Parameters   !
                           ! (Angstroms and Degrees)  !
 --------------------------                            --------------------------
 ! Name  Definition         TS        Reactant Product Derivative Info.         !
 --------------------------------------------------------------------------------
 ! R1    R(1,2)             1.0798    1.07      1.07   -DE/DX =    0.0          !
 ! R2    R(1,3)             1.0802    1.07      1.07   -DE/DX =    0.0          !
 ! R3    R(1,4)             1.3765    1.3552    1.5477 -DE/DX =    0.0001       !
 ! R4    R(1,14)            2.2072    2.0551    1.5209 -DE/DX =    0.0          !
 ! R5    R(1,15)            2.3763    1.8096    2.0985 -DE/DX =    0.0          !
 ! R6    R(2,14)            2.5119    1.8149    2.1908 -DE/DX =    0.0          !
 ! R7    R(4,5)             1.0803    1.07      1.07   -DE/DX =    0.0          !
 ! R8    R(4,6)             1.0798    1.07      1.07   -DE/DX =    0.0          !
 ! R9    R(4,7)             2.2037    2.0411    1.5491 -DE/DX =    0.0          !
 ! R10   R(4,8)             2.3743    1.8214    2.1896 -DE/DX =    0.0          !
 ! R11   R(5,8)             2.3563    1.9051    2.6219 -DE/DX =    0.0          !
 ! R12   R(6,7)             2.5085    1.8838    2.0971 -DE/DX =    0.0          !
 ! R13   R(7,8)             1.08      1.07      1.07   -DE/DX =    0.0          !
 ! R14   R(7,9)             1.0815    1.07      1.07   -DE/DX =    0.0          !
 ! R15   R(7,10)            1.3705    1.3552    1.571  -DE/DX =   -0.0001       !
 ! R16   R(10,11)           1.0812    1.07      1.07   -DE/DX =    0.0          !
 ! R17   R(10,12)           1.3992    1.54      1.3575 -DE/DX =    0.0          !
 ! R18   R(12,13)           1.0812    1.07      1.07   -DE/DX =    0.0          !
 ! R19   R(12,14)           1.3702    1.3552    1.5076 -DE/DX =    0.0001       !
 ! R20   R(14,15)           1.08      1.07      1.07   -DE/DX =    0.0          !
 ! R21   R(14,16)           1.0815    1.07      1.07   -DE/DX =    0.0          !
 ! A1    A(2,1,3)         114.6176  119.8865  109.2577 -DE/DX =    0.0          !
 ! A2    A(2,1,4)         119.4471  120.2269  107.844  -DE/DX =    0.0          !
 ! A3    A(2,1,14)         93.2739   61.8572  114.3356 -DE/DX =    0.0          !
 ! A4    A(2,1,15)        119.6299   93.1566  142.0561 -DE/DX =    0.0          !
 ! A5    A(3,1,4)         119.9813  119.8865  112.5796 -DE/DX =    0.0          !
 ! A6    A(3,1,14)         91.4663   93.7532  106.0753 -DE/DX =    0.0          !
 ! A7    A(3,1,15)         75.9046   76.0493   84.6118 -DE/DX =    0.0          !
 ! A8    A(4,1,14)        109.0144  113.9811  106.8348 -DE/DX =    0.0          !
 ! A9    A(4,1,15)         97.693   100.6724   98.048  -DE/DX =    0.0          !
 ! A10   A(1,2,14)         61.3127   86.8202   39.2399 -DE/DX =    0.0          !
 ! A11   A(1,4,5)         119.9309  120.2269  108.6378 -DE/DX =    0.0          !
 ! A12   A(1,4,6)         119.4343  119.8865  109.7412 -DE/DX =    0.0          !
 ! A13   A(1,4,7)         109.099   110.2016  110.3384 -DE/DX =    0.0          !
 ! A14   A(1,4,8)          97.8933   94.583    93.4822 -DE/DX =    0.0          !
 ! A15   A(5,4,6)         114.5952  119.8865  109.7112 -DE/DX =    0.0          !
 ! A16   A(5,4,7)          91.5765   93.2523  113.4241 -DE/DX =    0.0          !
 ! A17   A(6,4,7)          93.2546   66.2065  104.9167 -DE/DX =    0.0          !
 ! A18   A(6,4,8)         119.6026   97.7143  131.5148 -DE/DX =    0.0          !
 ! A19   A(4,6,7)          61.2938   82.4803   45.5429 -DE/DX =    0.0          !
 ! A20   A(4,7,8)          85.3545   62.8449  112.1526 -DE/DX =    0.0          !
 ! A21   A(4,7,9)         104.4383  111.2915  109.9818 -DE/DX =    0.0          !
 ! A22   A(4,7,10)        102.0557   95.4245  103.8092 -DE/DX =    0.0          !
 ! A23   A(6,7,8)         110.2697   94.1521  141.3018 -DE/DX =    0.0          !
 ! A24   A(6,7,9)          88.7512   97.2066   96.5875 -DE/DX =    0.0          !
 ! A25   A(6,7,10)         93.4224   78.6138   84.3754 -DE/DX =    0.0          !
 ! A26   A(8,7,9)         115.1384  119.8865  108.6528 -DE/DX =    0.0          !
 ! A27   A(8,7,10)        119.7669  120.2269  112.6208 -DE/DX =    0.0          !
 ! A28   A(9,7,10)        120.0782  119.8865  109.5393 -DE/DX =    0.0          !
 ! A29   A(4,8,7)          67.6853   85.641    40.937  -DE/DX =    0.0          !
 ! A30   A(5,8,7)          83.6392  101.093    55.758  -DE/DX =    0.0          !
 ! A31   A(7,10,11)       119.5264  120.2269  122.5361 -DE/DX =    0.0          !
 ! A32   A(7,10,12)       121.1445  119.8865  114.7709 -DE/DX =    0.0          !
 ! A33   A(11,10,12)      118.1821  119.8865  122.672  -DE/DX =    0.0          !
 ! A34   A(10,12,13)      118.1882  119.8865  124.9839 -DE/DX =    0.0          !
 ! A35   A(10,12,14)      121.142   120.2269  110.0898 -DE/DX =    0.0          !
 ! A36   A(13,12,14)      119.5275  119.8865  124.9242 -DE/DX =    0.0          !
 ! A37   A(1,14,12)       101.9334   94.8784  110.2545 -DE/DX =    0.0          !
 ! A38   A(1,14,15)        85.2936   61.5728  106.8867 -DE/DX =    0.0          !
 ! A39   A(1,14,16)       104.4837  113.1006  111.4518 -DE/DX =    0.0          !
 ! A40   A(2,14,12)        93.1945   79.6902  104.019  -DE/DX =    0.0          !
 ! A41   A(2,14,15)       110.2026   92.8634  132.1423 -DE/DX =    0.0          !
 ! A42   A(2,14,16)        88.9257   97.4383   91.9826 -DE/DX =    0.0          !
 ! A43   A(12,14,15)      119.767   120.2269  105.8413 -DE/DX =    0.0          !
 ! A44   A(12,14,16)      120.1085  119.8865  112.4766 -DE/DX =    0.0          !
 ! A45   A(15,14,16)      115.1693  119.8865  109.6241 -DE/DX =    0.0          !
 ! A46   A(1,15,14)        67.7739   87.0957   43.9103 -DE/DX =    0.0          !
 ! D1    D(3,1,2,14)       93.1186   77.1854  118.6803 -DE/DX =    0.0          !
 ! D2    D(4,1,2,14)     -114.0194 -102.8146 -118.6533 -DE/DX =    0.0          !
 ! D3    D(15,1,2,14)       5.8452    1.4732   12.0434 -DE/DX =    0.0          !
 ! D4    D(2,1,4,5)      -151.4089  180.0     -83.2569 -DE/DX =    0.0          !
 ! D5    D(2,1,4,6)        -0.2092    0.0      36.6906 -DE/DX =    0.0          !
 ! D6    D(2,1,4,7)       105.1201   73.4798  151.8219 -DE/DX =    0.0          !
 ! D7    D(2,1,4,8)       130.3965  101.6181  173.3546 -DE/DX =    0.0          !
 ! D8    D(3,1,4,5)        -0.0118    0.0      37.348  -DE/DX =    0.0          !
 ! D9    D(3,1,4,6)       151.1879 -180.0     157.2955 -DE/DX =    0.0          !
 ! D10   D(3,1,4,7)      -103.4828 -106.5202  -87.5731 -DE/DX =    0.0          !
 ! D11   D(3,1,4,8)       -78.2064  -78.3819  -66.0405 -DE/DX =    0.0          !
 ! D12   D(14,1,4,5)      103.2885  109.7724  153.3971 -DE/DX =    0.0          !
 ! D13   D(14,1,4,6)     -105.5117  -70.2276  -86.6554 -DE/DX =    0.0          !
 ! D14   D(14,1,4,7)       -0.1825    3.2522   28.476  -DE/DX =    0.0          !
 ! D15   D(15,1,4,5)       78.1128   79.9415  124.8312 -DE/DX =    0.0          !
 ! D16   D(15,1,4,6)     -130.6874 -100.0585 -115.2213 -DE/DX =    0.0          !
 ! D17   D(15,1,4,8)       -0.0817    1.5596   21.4427 -DE/DX =    0.0          !
 ! D18   D(2,1,14,12)     -71.8145  -60.937   -80.6572 -DE/DX =    0.0          !
 ! D19   D(2,1,14,15)     168.7294  177.1703  164.7544 -DE/DX =    0.0          !
 ! D20   D(2,1,14,16)      53.9279   64.5203   44.993  -DE/DX =    0.0          !
 ! D21   D(3,1,14,12)     173.424   176.9754  158.876  -DE/DX =    0.0          !
 ! D22   D(3,1,14,15)      53.9678   55.0826   44.2876 -DE/DX =    0.0          !
 ! D23   D(3,1,14,16)     -60.8336  -57.5673  -75.4739 -DE/DX =    0.0          !
 ! D24   D(4,1,14,12)      50.9069   51.8258   38.566  -DE/DX =    0.0          !
 ! D25   D(4,1,14,15)     -68.5493  -70.067   -76.0224 -DE/DX =    0.0          !
 ! D26   D(4,1,14,16)     176.6493  177.2831  164.2162 -DE/DX =    0.0          !
 ! D27   D(2,1,15,14)     -12.9722   -2.4987  -22.9329 -DE/DX =    0.0          !
 ! D28   D(3,1,15,14)    -123.5381 -122.5324 -137.6285 -DE/DX =    0.0          !
 ! D29   D(4,1,15,14)     117.3844  119.0658  110.2748 -DE/DX =    0.0          !
 ! D30   D(1,2,14,12)     111.4142  117.7225  107.4197 -DE/DX =    0.0          !
 ! D31   D(1,2,14,15)     -11.9791   -2.4914  -19.8371 -DE/DX =    0.0          !
 ! D32   D(1,2,14,16)    -128.4891 -123.1333 -138.8193 -DE/DX =    0.0          !
 ! D33   D(1,4,6,7)       114.1037  100.4797  118.5381 -DE/DX =    0.0          !
 ! D34   D(5,4,6,7)       -93.2295  -79.5203 -122.1709 -DE/DX =    0.0          !
 ! D35   D(8,4,6,7)        -6.0242    0.6425    4.7196 -DE/DX =    0.0          !
 ! D36   D(1,4,7,8)        68.888    64.0719   54.0422 -DE/DX =    0.0          !
 ! D37   D(1,4,7,9)      -176.3289  177.7211  175.0717 -DE/DX =    0.0          !
 ! D38   D(1,4,7,10)      -50.5833  -57.2354  -67.8091 -DE/DX =    0.0          !
 ! D39   D(5,4,7,8)       -53.6427  -59.8595  -68.1009 -DE/DX =    0.0          !
 ! D40   D(5,4,7,9)        61.1405   53.7897   52.9286 -DE/DX =    0.0          !
 ! D41   D(5,4,7,10)     -173.114   178.8332  170.0478 -DE/DX =    0.0          !
 ! D42   D(6,4,7,8)      -168.3888  178.7819  172.1764 -DE/DX =    0.0          !
 ! D43   D(6,4,7,9)       -53.6057  -67.5689  -66.7941 -DE/DX =    0.0          !
 ! D44   D(6,4,7,10)       72.1399   57.4746   50.3251 -DE/DX =    0.0          !
 ! D45   D(1,4,8,7)      -117.1319 -122.1426 -130.5015 -DE/DX =    0.0          !
 ! D46   D(6,4,8,7)        13.3625   -1.1247  -10.1174 -DE/DX =    0.0          !
 ! D47   D(4,6,7,8)        12.3481   -1.0867  -11.6335 -DE/DX =    0.0          !
 ! D48   D(4,6,7,9)       128.7655  119.7607  119.5986 -DE/DX =    0.0          !
 ! D49   D(4,6,7,10)     -111.1754 -121.1042 -131.3187 -DE/DX =    0.0          !
 ! D50   D(6,7,8,4)        -5.2905    0.6347    6.1623 -DE/DX =    0.0          !
 ! D51   D(6,7,8,5)        16.5094   30.2487   31.0152 -DE/DX =    0.0          !
 ! D52   D(9,7,8,4)      -103.7805 -100.1309 -121.7924 -DE/DX =    0.0          !
 ! D53   D(9,7,8,5)       -81.9806  -70.5169  -96.9395 -DE/DX =    0.0          !
 ! D54   D(10,7,8,4)      101.2406   79.8691  116.669  -DE/DX =    0.0          !
 ! D55   D(10,7,8,5)      123.0404  109.4831  141.5219 -DE/DX =    0.0          !
 ! D56   D(4,7,10,11)    -108.7603 -118.3767 -141.2238 -DE/DX =    0.0          !
 ! D57   D(4,7,10,12)      58.7765   61.6233   37.146  -DE/DX =    0.0          !
 ! D58   D(6,7,10,11)     -84.57    -91.8255 -118.8086 -DE/DX =    0.0          !
 ! D59   D(6,7,10,12)      82.9668   88.1745   59.5612 -DE/DX =    0.0          !
 ! D60   D(8,7,10,11)     159.7072  180.0      97.2372 -DE/DX =    0.0          !
 ! D61   D(8,7,10,12)     -32.756     0.0     -84.3929 -DE/DX =    0.0          !
 ! D62   D(9,7,10,11)       5.969     0.0     -23.7964 -DE/DX =    0.0          !
 ! D63   D(9,7,10,12)     173.5058  180.0     154.5735 -DE/DX =    0.0          !
 ! D64   D(7,10,12,13)   -167.7113 -179.2941 -152.4018 -DE/DX =    0.0          !
 ! D65   D(7,10,12,14)      0.0124    0.7059   28.0998 -DE/DX =    0.0          !
 ! D66   D(11,10,12,13)    -0.0119    0.7059   25.9656 -DE/DX =    0.0          !
 ! D67   D(11,10,12,14)   167.7118 -179.2941 -153.5328 -DE/DX =    0.0          !
 ! D68   D(10,12,14,1)    -58.7759  -59.7865  -72.5484 -DE/DX =    0.0          !
 ! D69   D(10,12,14,2)    -82.8768  -87.2934  -99.4588 -DE/DX =    0.0          !
 ! D70   D(10,12,14,15)    32.6146    0.0      42.7007 -DE/DX =    0.0          !
 ! D71   D(10,12,14,16)  -173.4875 -180.0     162.3839 -DE/DX =    0.0          !
 ! D72   D(13,12,14,1)    108.7861  120.2135  107.9528 -DE/DX =    0.0          !
 ! D73   D(13,12,14,2)     84.6852   92.7066   81.0424 -DE/DX =    0.0          !
 ! D74   D(13,12,14,15)  -159.8234  180.0    -136.7981 -DE/DX =    0.0          !
 ! D75   D(13,12,14,16)    -5.9255    0.0     -17.1149 -DE/DX =    0.0          !
 ! D76   D(2,14,15,1)       5.1275    1.4724    9.0804 -DE/DX =    0.0          !
 ! D77   D(12,14,15,1)   -101.0651  -78.2598 -117.5299 -DE/DX =    0.0          !
 ! D78   D(16,14,15,1)    103.8034  101.7402  120.9311 -DE/DX =    0.0          !
 --------------------------------------------------------------------------------
 Largest change from initial coordinates is atom    9       3.772 Angstoms.
 GradGradGradGradGradGradGradGradGradGradGradGradGradGradGradGradGradGrad

 Leave Link  103 at Wed Jun 24 14:07:22 2026, MaxMem=   104857600 cpu:               0.0 elap:               0.0
 (Enter E:/g16w/\l202.exe)
                          Input orientation:                          
 ---------------------------------------------------------------------
 Center     Atomic      Atomic             Coordinates (Angstroms)
 Number     Number       Type             X           Y           Z
 ---------------------------------------------------------------------
      1          6           0       -0.145664    1.344442   -0.930151
      2          1           0        0.296716    0.623068   -0.259483
      3          1           0       -1.220054    1.276563   -1.018909
      4          6           0        0.487408    2.548138   -1.142527
      5          1           0       -0.091294    3.423807   -1.398015
      6          1           0        1.416314    2.756303   -0.632928
      7          6           0        1.438388    2.521843   -3.130348
      8          1           0        0.429687    2.532586   -3.516085
      9          1           0        1.963368    3.465416   -3.190617
     10          6           0        2.141205    1.345757   -3.095903
     11          1           0        3.220153    1.371494   -3.031472
     12          6           0        1.495479    0.122780   -2.883167
     13          1           0        2.103081   -0.744183   -2.663655
     14          6           0        0.138686    0.059843   -2.702370
     15          1           0       -0.502890    0.766760   -3.207358
     16          1           0       -0.330100   -0.877360   -2.435117
 ---------------------------------------------------------------------
                    Distance matrix (angstroms):
                    1          2          3          4          5
     1  C    0.000000
     2  H    1.079758   0.000000
     3  H    1.080185   1.817794   0.000000
     4  C    1.376506   2.126506   2.132512   0.000000
     5  H    2.132044   3.048106   2.455296   1.080262   0.000000
     6  H    2.126375   2.437961   3.047794   1.079764   1.817636
     7  C    2.955733   3.626379   3.616104   2.203744   2.480815
     8  H    2.903406   3.777486   3.245785   2.374310   2.356251
     9  H    3.749167   4.410014   4.431880   2.685988   2.727048
    10  C    3.149643   3.459725   3.951803   2.827798   3.490726
    11  H    3.967998   4.097628   4.875947   3.524274   4.224435
    12  C    2.828441   2.927633   3.490099   3.150936   3.952253
    13  H    3.524804   3.303388   4.222775   3.970341   4.877424
    14  C    2.207217   2.511950   2.482060   2.957419   3.615312
    15  H    2.376341   3.057775   2.358713   2.901297   3.240838
    16  H    2.689859   2.716167   2.727095   3.751419   4.430875
                    6          7          8          9         10
     6  H    0.000000
     7  C    2.508498   0.000000
     8  H    3.055499   1.079993   0.000000
     9  H    2.709960   1.081465   1.824356   0.000000
    10  C    2.929395   1.370517   2.124713   2.129213   0.000000
    11  H    3.305230   2.123150   3.060994   2.447314   1.081177
    12  C    3.464865   2.412439   2.709919   3.389198   1.399247
    13  H    4.104742   3.365493   3.776784   4.244753   2.134512
    14  C    3.631228   2.816706   2.619402   3.894325   2.412161
    15  H    3.777475   2.618169   2.020681   3.655879   2.709040
    16  H    4.416034   3.894288   3.656980   4.968951   3.389135
                   11         12         13         14         15
    11  H    0.000000
    12  C    2.134428   0.000000
    13  H    2.420584   1.081198   0.000000
    14  C    3.365141   1.370232   2.122924   0.000000
    15  H    3.775936   2.124451   3.060988   1.079984   0.000000
    16  H    4.244677   2.129264   2.447516   1.081451   1.824650
                   16
    16  H    0.000000
 Stoichiometry    C6H10
 Framework group  C1[X(C6H10)]
 Deg. of freedom    42
 Full point group                 C1      NOp   1
 RotChk:  IX=3 Diff= 5.17D-16
 Largest Abelian subgroup         C1      NOp   1
 Largest concise Abelian subgroup C1      NOp   1
                         Standard orientation:                         
 ---------------------------------------------------------------------
 Center     Atomic      Atomic             Coordinates (Angstroms)
 Number     Number       Type             X           Y           Z
 ---------------------------------------------------------------------
      1          6           0       -1.527440    0.693612   -0.230835
      2          1           0       -1.442641    1.221949   -1.168676
      3          1           0       -2.043907    1.237167    0.546731
      4          6           0       -1.532652   -0.682880   -0.227638
      5          1           0       -2.053344   -1.218103    0.552991
      6          1           0       -1.455282   -1.215974   -1.163435
      7          6           0        0.419314   -1.409674    0.492141
      8          1           0        0.116034   -1.011293    1.449063
      9          1           0        0.356541   -2.485515    0.401636
     10          6           0        1.294329   -0.704283   -0.292135
     11          1           0        1.848514   -1.216971   -1.066070
     12          6           0        1.300348    0.694951   -0.291567
     13          1           0        1.859067    1.203590   -1.064942
     14          6           0        0.431759    1.407004    0.493333
     15          1           0        0.123492    1.009374    1.448961
     16          1           0        0.377576    2.483392    0.403945
 ---------------------------------------------------------------------
 Rotational constants (GHZ):           4.4532429           3.6070186           2.3502588
 Leave Link  202 at Wed Jun 24 14:07:22 2026, MaxMem=   104857600 cpu:               0.0 elap:               0.0
 (Enter E:/g16w/\l601.exe)
 Leave Link  601 at Wed Jun 24 14:07:22 2026, MaxMem=   104857600 cpu:               0.0 elap:               0.0
 (Enter E:/g16w/\l9999.exe)
 1|1|UNPC-DESKTOP-2NI9PHF|FTS|RExternal='D:\xbt-windows\gau_xtb_client.
 bat'|ZDO|C6H10|ADMINISTRATOR|24-Jun-2026|0||#P opt(qst2,nomicro,noeige
 ntest) geom=connectivity external='D:\xbt-windows\gau_xtb_client.bat'|
 |Title Card Required||0,1|C,-0.1456636208,1.3444415383,-0.930151265|H,
 0.2967163704,0.6230676014,-0.2594828134|H,-1.2200535231,1.2765631652,-
 1.0189093506|C,0.4874077878,2.5481380632,-1.1425271555|H,-0.0912935897
 ,3.4238071438,-1.3980148268|H,1.4163142274,2.7563031714,-0.6329281179|
 C,1.438387932,2.5218429949,-3.1303477662|H,0.4296873768,2.5325856671,-
 3.5160848759|H,1.9633678075,3.4654156399,-3.1906174081|C,2.1412048384,
 1.3457568899,-3.0959030202|H,3.2201533184,1.3714936988,-3.0314724745|C
 ,1.4954789467,0.1227795627,-2.8831667363|H,2.1030811764,-0.7441830899,
 -2.6636551463|C,0.1386860837,0.059843494,-2.7023698787|H,-0.5028904333
 ,0.7667602289,-3.2073579817|H,-0.3300996086,-0.8773603797,-2.435116642
 8||Version=EM64W-G16RevA.03|HF=-234.4992214|RMSD=0.000e+000|RMSF=5.461
 e-005|Dipole=0.,0.,0.|PG=C01 [X(C6H10)]||@


 BLESSED ARE THOSE WHO NOUGHT EXPECT,
 FOR THEY SHALL NOT BE DISAPPOINTED..  WALCOT - ODE TO PITT
 Job cpu time:       0 days  0 hours  0 minutes 11.0 seconds.
 Elapsed time:       0 days  0 hours  0 minutes  7.2 seconds.
 File lengths (MBytes):  RWF=      6 Int=      0 D2E=      0 Chk=      2 Scr=      1
 Normal termination of Gaussian 16 at Wed Jun 24 14:07:22 2026.
